+ 0.1 0 3 tcp 40 ------- 1 0.0 4.0 0 0
- 0.1 0 3 tcp 40 ------- 1 0.0 4.0 0 0
+ 0.1 1 3 tcp 40 ------- 2 1.0 4.1 0 1
- 0.1 1 3 tcp 40 ------- 2 1.0 4.1 0 1
+ 0.1 2 3 tcp 40 ------- 3 2.0 4.2 0 2
- 0.1 2 3 tcp 40 ------- 3 2.0 4.2 0 2
r 0.110053 0 3 tcp 40 ------- 1 0.0 4.0 0 0
+ 0.110053 3 4 tcp 40 ------- 1 0.0 4.0 0 0
- 0.110053 3 4 tcp 40 ------- 1 0.0 4.0 0 0
r 0.110053 1 3 tcp 40 ------- 2 1.0 4.1 0 1
+ 0.110053 3 4 tcp 40 ------- 2 1.0 4.1 0 1
r 0.110053 2 3 tcp 40 ------- 3 2.0 4.2 0 2
+ 0.110053 3 4 tcp 40 ------- 3 2.0 4.2 0 2
- 0.11016 3 4 tcp 40 ------- 2 1.0 4.1 0 1
- 0.110267 3 4 tcp 40 ------- 3 2.0 4.2 0 2
r 0.12016 3 4 tcp 40 ------- 1 0.0 4.0 0 0
+ 0.12016 4 3 ack 40 ------- 1 4.0 0.0 0 3
- 0.12016 4 3 ack 40 ------- 1 4.0 0.0 0 3
r 0.120267 3 4 tcp 40 ------- 2 1.0 4.1 0 1
+ 0.120267 4 3 ack 40 ------- 2 4.1 1.0 0 4
- 0.120267 4 3 ack 40 ------- 2 4.1 1.0 0 4
r 0.120373 3 4 tcp 40 ------- 3 2.0 4.2 0 2
+ 0.120373 4 3 ack 40 ------- 3 4.2 2.0 0 5
- 0.120373 4 3 ack 40 ------- 3 4.2 2.0 0 5
r 0.130267 4 3 ack 40 ------- 1 4.0 0.0 0 3
+ 0.130267 3 0 ack 40 ------- 1 4.0 0.0 0 3
- 0.130267 3 0 ack 40 ------- 1 4.0 0.0 0 3
r 0.130373 4 3 ack 40 ------- 2 4.1 1.0 0 4
+ 0.130373 3 1 ack 40 ------- 2 4.1 1.0 0 4
- 0.130373 3 1 ack 40 ------- 2 4.1 1.0 0 4
r 0.13048 4 3 ack 40 ------- 3 4.2 2.0 0 5
+ 0.13048 3 2 ack 40 ------- 3 4.2 2.0 0 5
- 0.13048 3 2 ack 40 ------- 3 4.2 2.0 0 5
r 0.14032 3 0 ack 40 ------- 1 4.0 0.0 0 3
+ 0.14032 0 3 tcp 1040 ------- 1 0.0 4.0 1 6
- 0.14032 0 3 tcp 1040 ------- 1 0.0 4.0 1 6
+ 0.14032 0 3 tcp 1040 ------- 1 0.0 4.0 2 7
r 0.140427 3 1 ack 40 ------- 2 4.1 1.0 0 4
+ 0.140427 1 3 tcp 1040 ------- 2 1.0 4.1 1 8
- 0.140427 1 3 tcp 1040 ------- 2 1.0 4.1 1 8
+ 0.140427 1 3 tcp 1040 ------- 2 1.0 4.1 2 9
r 0.140533 3 2 ack 40 ------- 3 4.2 2.0 0 5
+ 0.140533 2 3 tcp 1040 ------- 3 2.0 4.2 1 10
- 0.140533 2 3 tcp 1040 ------- 3 2.0 4.2 1 10
+ 0.140533 2 3 tcp 1040 ------- 3 2.0 4.2 2 11
- 0.141707 0 3 tcp 1040 ------- 1 0.0 4.0 2 7
- 0.141813 1 3 tcp 1040 ------- 2 1.0 4.1 2 9
- 0.14192 2 3 tcp 1040 ------- 3 2.0 4.2 2 11
r 0.151707 0 3 tcp 1040 ------- 1 0.0 4.0 1 6
+ 0.151707 3 4 tcp 1040 ------- 1 0.0 4.0 1 6
- 0.151707 3 4 tcp 1040 ------- 1 0.0 4.0 1 6
r 0.151813 1 3 tcp 1040 ------- 2 1.0 4.1 1 8
+ 0.151813 3 4 tcp 1040 ------- 2 1.0 4.1 1 8
r 0.15192 2 3 tcp 1040 ------- 3 2.0 4.2 1 10
+ 0.15192 3 4 tcp 1040 ------- 3 2.0 4.2 1 10
r 0.153093 0 3 tcp 1040 ------- 1 0.0 4.0 2 7
+ 0.153093 3 4 tcp 1040 ------- 1 0.0 4.0 2 7
r 0.1532 1 3 tcp 1040 ------- 2 1.0 4.1 2 9
+ 0.1532 3 4 tcp 1040 ------- 2 1.0 4.1 2 9
r 0.153307 2 3 tcp 1040 ------- 3 2.0 4.2 2 11
+ 0.153307 3 4 tcp 1040 ------- 3 2.0 4.2 2 11
d 0.153307 3 4 tcp 1040 ------- 3 2.0 4.2 2 11
- 0.15448 3 4 tcp 1040 ------- 2 1.0 4.1 1 8
- 0.157253 3 4 tcp 1040 ------- 3 2.0 4.2 1 10
- 0.160027 3 4 tcp 1040 ------- 1 0.0 4.0 2 7
- 0.1628 3 4 tcp 1040 ------- 2 1.0 4.1 2 9
r 0.16448 3 4 tcp 1040 ------- 1 0.0 4.0 1 6
+ 0.16448 4 3 ack 40 ------- 1 4.0 0.0 1 12
- 0.16448 4 3 ack 40 ------- 1 4.0 0.0 1 12
r 0.167253 3 4 tcp 1040 ------- 2 1.0 4.1 1 8
+ 0.167253 4 3 ack 40 ------- 2 4.1 1.0 1 13
- 0.167253 4 3 ack 40 ------- 2 4.1 1.0 1 13
r 0.170027 3 4 tcp 1040 ------- 3 2.0 4.2 1 10
+ 0.170027 4 3 ack 40 ------- 3 4.2 2.0 1 14
- 0.170027 4 3 ack 40 ------- 3 4.2 2.0 1 14
r 0.1728 3 4 tcp 1040 ------- 1 0.0 4.0 2 7
+ 0.1728 4 3 ack 40 ------- 1 4.0 0.0 2 15
- 0.1728 4 3 ack 40 ------- 1 4.0 0.0 2 15
r 0.174587 4 3 ack 40 ------- 1 4.0 0.0 1 12
+ 0.174587 3 0 ack 40 ------- 1 4.0 0.0 1 12
- 0.174587 3 0 ack 40 ------- 1 4.0 0.0 1 12
r 0.175573 3 4 tcp 1040 ------- 2 1.0 4.1 2 9
+ 0.175573 4 3 ack 40 ------- 2 4.1 1.0 2 16
- 0.175573 4 3 ack 40 ------- 2 4.1 1.0 2 16
r 0.17736 4 3 ack 40 ------- 2 4.1 1.0 1 13
+ 0.17736 3 1 ack 40 ------- 2 4.1 1.0 1 13
- 0.17736 3 1 ack 40 ------- 2 4.1 1.0 1 13
r 0.180133 4 3 ack 40 ------- 3 4.2 2.0 1 14
+ 0.180133 3 2 ack 40 ------- 3 4.2 2.0 1 14
- 0.180133 3 2 ack 40 ------- 3 4.2 2.0 1 14
r 0.182907 4 3 ack 40 ------- 1 4.0 0.0 2 15
+ 0.182907 3 0 ack 40 ------- 1 4.0 0.0 2 15
- 0.182907 3 0 ack 40 ------- 1 4.0 0.0 2 15
r 0.18464 3 0 ack 40 ------- 1 4.0 0.0 1 12
+ 0.18464 0 3 tcp 1040 ------- 1 0.0 4.0 3 17
- 0.18464 0 3 tcp 1040 ------- 1 0.0 4.0 3 17
+ 0.18464 0 3 tcp 1040 ------- 1 0.0 4.0 4 18
r 0.18568 4 3 ack 40 ------- 2 4.1 1.0 2 16
+ 0.18568 3 1 ack 40 ------- 2 4.1 1.0 2 16
- 0.18568 3 1 ack 40 ------- 2 4.1 1.0 2 16
- 0.186027 0 3 tcp 1040 ------- 1 0.0 4.0 4 18
r 0.187413 3 1 ack 40 ------- 2 4.1 1.0 1 13
+ 0.187413 1 3 tcp 1040 ------- 2 1.0 4.1 3 19
- 0.187413 1 3 tcp 1040 ------- 2 1.0 4.1 3 19
+ 0.187413 1 3 tcp 1040 ------- 2 1.0 4.1 4 20
- 0.1888 1 3 tcp 1040 ------- 2 1.0 4.1 4 20
r 0.190187 3 2 ack 40 ------- 3 4.2 2.0 1 14
+ 0.190187 2 3 tcp 1040 ------- 3 2.0 4.2 3 21
- 0.190187 2 3 tcp 1040 ------- 3 2.0 4.2 3 21
+ 0.190187 2 3 tcp 1040 ------- 3 2.0 4.2 4 22
- 0.191573 2 3 tcp 1040 ------- 3 2.0 4.2 4 22
r 0.19296 3 0 ack 40 ------- 1 4.0 0.0 2 15
+ 0.19296 0 3 tcp 1040 ------- 1 0.0 4.0 5 23
- 0.19296 0 3 tcp 1040 ------- 1 0.0 4.0 5 23
+ 0.19296 0 3 tcp 1040 ------- 1 0.0 4.0 6 24
- 0.194347 0 3 tcp 1040 ------- 1 0.0 4.0 6 24
r 0.195733 3 1 ack 40 ------- 2 4.1 1.0 2 16
+ 0.195733 1 3 tcp 1040 ------- 2 1.0 4.1 5 25
- 0.195733 1 3 tcp 1040 ------- 2 1.0 4.1 5 25
+ 0.195733 1 3 tcp 1040 ------- 2 1.0 4.1 6 26
r 0.196027 0 3 tcp 1040 ------- 1 0.0 4.0 3 17
+ 0.196027 3 4 tcp 1040 ------- 1 0.0 4.0 3 17
- 0.196027 3 4 tcp 1040 ------- 1 0.0 4.0 3 17
- 0.19712 1 3 tcp 1040 ------- 2 1.0 4.1 6 26
r 0.197413 0 3 tcp 1040 ------- 1 0.0 4.0 4 18
+ 0.197413 3 4 tcp 1040 ------- 1 0.0 4.0 4 18
r 0.1988 1 3 tcp 1040 ------- 2 1.0 4.1 3 19
+ 0.1988 3 4 tcp 1040 ------- 2 1.0 4.1 3 19
- 0.1988 3 4 tcp 1040 ------- 1 0.0 4.0 4 18
r 0.200187 1 3 tcp 1040 ------- 2 1.0 4.1 4 20
+ 0.200187 3 4 tcp 1040 ------- 2 1.0 4.1 4 20
r 0.201573 2 3 tcp 1040 ------- 3 2.0 4.2 3 21
+ 0.201573 3 4 tcp 1040 ------- 3 2.0 4.2 3 21
- 0.201573 3 4 tcp 1040 ------- 2 1.0 4.1 3 19
r 0.20296 2 3 tcp 1040 ------- 3 2.0 4.2 4 22
+ 0.20296 3 4 tcp 1040 ------- 3 2.0 4.2 4 22
r 0.204347 0 3 tcp 1040 ------- 1 0.0 4.0 5 23
+ 0.204347 3 4 tcp 1040 ------- 1 0.0 4.0 5 23
- 0.204347 3 4 tcp 1040 ------- 2 1.0 4.1 4 20
r 0.205733 0 3 tcp 1040 ------- 1 0.0 4.0 6 24
+ 0.205733 3 4 tcp 1040 ------- 1 0.0 4.0 6 24
r 0.20712 1 3 tcp 1040 ------- 2 1.0 4.1 5 25
+ 0.20712 3 4 tcp 1040 ------- 2 1.0 4.1 5 25
d 0.20712 3 4 tcp 1040 ------- 2 1.0 4.1 5 25
- 0.20712 3 4 tcp 1040 ------- 3 2.0 4.2 3 21
r 0.208507 1 3 tcp 1040 ------- 2 1.0 4.1 6 26
+ 0.208507 3 4 tcp 1040 ------- 2 1.0 4.1 6 26
r 0.2088 3 4 tcp 1040 ------- 1 0.0 4.0 3 17
+ 0.2088 4 3 ack 40 ------- 1 4.0 0.0 3 27
- 0.2088 4 3 ack 40 ------- 1 4.0 0.0 3 27
- 0.209893 3 4 tcp 1040 ------- 3 2.0 4.2 4 22
r 0.211573 3 4 tcp 1040 ------- 1 0.0 4.0 4 18
+ 0.211573 4 3 ack 40 ------- 1 4.0 0.0 4 28
- 0.211573 4 3 ack 40 ------- 1 4.0 0.0 4 28
- 0.212667 3 4 tcp 1040 ------- 1 0.0 4.0 5 23
r 0.214347 3 4 tcp 1040 ------- 2 1.0 4.1 3 19
+ 0.214347 4 3 ack 40 ------- 2 4.1 1.0 3 29
- 0.214347 4 3 ack 40 ------- 2 4.1 1.0 3 29
- 0.21544 3 4 tcp 1040 ------- 1 0.0 4.0 6 24
r 0.21712 3 4 tcp 1040 ------- 2 1.0 4.1 4 20
+ 0.21712 4 3 ack 40 ------- 2 4.1 1.0 4 30
- 0.21712 4 3 ack 40 ------- 2 4.1 1.0 4 30
- 0.218213 3 4 tcp 1040 ------- 2 1.0 4.1 6 26
r 0.218907 4 3 ack 40 ------- 1 4.0 0.0 3 27
+ 0.218907 3 0 ack 40 ------- 1 4.0 0.0 3 27
- 0.218907 3 0 ack 40 ------- 1 4.0 0.0 3 27
r 0.219893 3 4 tcp 1040 ------- 3 2.0 4.2 3 21
+ 0.219893 4 3 ack 40 ------- 3 4.2 2.0 1 31
- 0.219893 4 3 ack 40 ------- 3 4.2 2.0 1 31
r 0.22168 4 3 ack 40 ------- 1 4.0 0.0 4 28
+ 0.22168 3 0 ack 40 ------- 1 4.0 0.0 4 28
- 0.22168 3 0 ack 40 ------- 1 4.0 0.0 4 28
r 0.222667 3 4 tcp 1040 ------- 3 2.0 4.2 4 22
+ 0.222667 4 3 ack 40 ------- 3 4.2 2.0 1 32
- 0.222667 4 3 ack 40 ------- 3 4.2 2.0 1 32
r 0.224453 4 3 ack 40 ------- 2 4.1 1.0 3 29
+ 0.224453 3 1 ack 40 ------- 2 4.1 1.0 3 29
- 0.224453 3 1 ack 40 ------- 2 4.1 1.0 3 29
r 0.22544 3 4 tcp 1040 ------- 1 0.0 4.0 5 23
+ 0.22544 4 3 ack 40 ------- 1 4.0 0.0 5 33
- 0.22544 4 3 ack 40 ------- 1 4.0 0.0 5 33
r 0.227227 4 3 ack 40 ------- 2 4.1 1.0 4 30
+ 0.227227 3 1 ack 40 ------- 2 4.1 1.0 4 30
- 0.227227 3 1 ack 40 ------- 2 4.1 1.0 4 30
r 0.228213 3 4 tcp 1040 ------- 1 0.0 4.0 6 24
+ 0.228213 4 3 ack 40 ------- 1 4.0 0.0 6 34
- 0.228213 4 3 ack 40 ------- 1 4.0 0.0 6 34
r 0.22896 3 0 ack 40 ------- 1 4.0 0.0 3 27
+ 0.22896 0 3 tcp 1040 ------- 1 0.0 4.0 7 35
- 0.22896 0 3 tcp 1040 ------- 1 0.0 4.0 7 35
+ 0.22896 0 3 tcp 1040 ------- 1 0.0 4.0 8 36
r 0.23 4 3 ack 40 ------- 3 4.2 2.0 1 31
+ 0.23 3 2 ack 40 ------- 3 4.2 2.0 1 31
- 0.23 3 2 ack 40 ------- 3 4.2 2.0 1 31
- 0.230347 0 3 tcp 1040 ------- 1 0.0 4.0 8 36
r 0.230987 3 4 tcp 1040 ------- 2 1.0 4.1 6 26
+ 0.230987 4 3 ack 40 ------- 2 4.1 1.0 4 37
- 0.230987 4 3 ack 40 ------- 2 4.1 1.0 4 37
r 0.231733 3 0 ack 40 ------- 1 4.0 0.0 4 28
+ 0.231733 0 3 tcp 1040 ------- 1 0.0 4.0 9 38
+ 0.231733 0 3 tcp 1040 ------- 1 0.0 4.0 10 39
- 0.231733 0 3 tcp 1040 ------- 1 0.0 4.0 9 38
r 0.232773 4 3 ack 40 ------- 3 4.2 2.0 1 32
+ 0.232773 3 2 ack 40 ------- 3 4.2 2.0 1 32
- 0.232773 3 2 ack 40 ------- 3 4.2 2.0 1 32
- 0.23312 0 3 tcp 1040 ------- 1 0.0 4.0 10 39
r 0.234507 3 1 ack 40 ------- 2 4.1 1.0 3 29
+ 0.234507 1 3 tcp 1040 ------- 2 1.0 4.1 7 40
- 0.234507 1 3 tcp 1040 ------- 2 1.0 4.1 7 40
+ 0.234507 1 3 tcp 1040 ------- 2 1.0 4.1 8 41
r 0.235547 4 3 ack 40 ------- 1 4.0 0.0 5 33
+ 0.235547 3 0 ack 40 ------- 1 4.0 0.0 5 33
- 0.235547 3 0 ack 40 ------- 1 4.0 0.0 5 33
- 0.235893 1 3 tcp 1040 ------- 2 1.0 4.1 8 41
r 0.23728 3 1 ack 40 ------- 2 4.1 1.0 4 30
+ 0.23728 1 3 tcp 1040 ------- 2 1.0 4.1 9 42
+ 0.23728 1 3 tcp 1040 ------- 2 1.0 4.1 10 43
- 0.23728 1 3 tcp 1040 ------- 2 1.0 4.1 9 42
r 0.23832 4 3 ack 40 ------- 1 4.0 0.0 6 34
+ 0.23832 3 0 ack 40 ------- 1 4.0 0.0 6 34
- 0.23832 3 0 ack 40 ------- 1 4.0 0.0 6 34
- 0.238667 1 3 tcp 1040 ------- 2 1.0 4.1 10 43
r 0.240053 3 2 ack 40 ------- 3 4.2 2.0 1 31
+ 0.240053 2 3 tcp 1040 ------- 3 2.0 4.2 5 44
- 0.240053 2 3 tcp 1040 ------- 3 2.0 4.2 5 44
r 0.240347 0 3 tcp 1040 ------- 1 0.0 4.0 7 35
+ 0.240347 3 4 tcp 1040 ------- 1 0.0 4.0 7 35
- 0.240347 3 4 tcp 1040 ------- 1 0.0 4.0 7 35
r 0.241093 4 3 ack 40 ------- 2 4.1 1.0 4 37
+ 0.241093 3 1 ack 40 ------- 2 4.1 1.0 4 37
- 0.241093 3 1 ack 40 ------- 2 4.1 1.0 4 37
r 0.241733 0 3 tcp 1040 ------- 1 0.0 4.0 8 36
+ 0.241733 3 4 tcp 1040 ------- 1 0.0 4.0 8 36
r 0.242827 3 2 ack 40 ------- 3 4.2 2.0 1 32
- 0.24312 3 4 tcp 1040 ------- 1 0.0 4.0 8 36
r 0.24312 0 3 tcp 1040 ------- 1 0.0 4.0 9 38
+ 0.24312 3 4 tcp 1040 ------- 1 0.0 4.0 9 38
r 0.244507 0 3 tcp 1040 ------- 1 0.0 4.0 10 39
+ 0.244507 3 4 tcp 1040 ------- 1 0.0 4.0 10 39
r 0.2456 3 0 ack 40 ------- 1 4.0 0.0 5 33
+ 0.2456 0 3 tcp 1040 ------- 1 0.0 4.0 11 45
- 0.2456 0 3 tcp 1040 ------- 1 0.0 4.0 11 45
+ 0.2456 0 3 tcp 1040 ------- 1 0.0 4.0 12 46
r 0.245893 1 3 tcp 1040 ------- 2 1.0 4.1 7 40
+ 0.245893 3 4 tcp 1040 ------- 2 1.0 4.1 7 40
- 0.245893 3 4 tcp 1040 ------- 1 0.0 4.0 9 38
- 0.246987 0 3 tcp 1040 ------- 1 0.0 4.0 12 46
r 0.24728 1 3 tcp 1040 ------- 2 1.0 4.1 8 41
+ 0.24728 3 4 tcp 1040 ------- 2 1.0 4.1 8 41
r 0.248373 3 0 ack 40 ------- 1 4.0 0.0 6 34
+ 0.248373 0 3 tcp 1040 ------- 1 0.0 4.0 13 47
+ 0.248373 0 3 tcp 1040 ------- 1 0.0 4.0 14 48
- 0.248373 0 3 tcp 1040 ------- 1 0.0 4.0 13 47
- 0.248667 3 4 tcp 1040 ------- 1 0.0 4.0 10 39
r 0.248667 1 3 tcp 1040 ------- 2 1.0 4.1 9 42
+ 0.248667 3 4 tcp 1040 ------- 2 1.0 4.1 9 42
- 0.24976 0 3 tcp 1040 ------- 1 0.0 4.0 14 48
r 0.250053 1 3 tcp 1040 ------- 2 1.0 4.1 10 43
+ 0.250053 3 4 tcp 1040 ------- 2 1.0 4.1 10 43
r 0.251147 3 1 ack 40 ------- 2 4.1 1.0 4 37
+ 0.251147 1 3 tcp 1040 ------- 2 1.0 4.1 11 49
- 0.251147 1 3 tcp 1040 ------- 2 1.0 4.1 11 49
r 0.25144 2 3 tcp 1040 ------- 3 2.0 4.2 5 44
+ 0.25144 3 4 tcp 1040 ------- 3 2.0 4.2 5 44
d 0.25144 3 4 tcp 1040 ------- 3 2.0 4.2 5 44
- 0.25144 3 4 tcp 1040 ------- 2 1.0 4.1 7 40
r 0.25312 3 4 tcp 1040 ------- 1 0.0 4.0 7 35
+ 0.25312 4 3 ack 40 ------- 1 4.0 0.0 7 50
- 0.25312 4 3 ack 40 ------- 1 4.0 0.0 7 50
- 0.254213 3 4 tcp 1040 ------- 2 1.0 4.1 8 41
r 0.255893 3 4 tcp 1040 ------- 1 0.0 4.0 8 36
+ 0.255893 4 3 ack 40 ------- 1 4.0 0.0 8 51
- 0.255893 4 3 ack 40 ------- 1 4.0 0.0 8 51
r 0.256987 0 3 tcp 1040 ------- 1 0.0 4.0 11 45
+ 0.256987 3 4 tcp 1040 ------- 1 0.0 4.0 11 45
- 0.256987 3 4 tcp 1040 ------- 2 1.0 4.1 9 42
r 0.258373 0 3 tcp 1040 ------- 1 0.0 4.0 12 46
+ 0.258373 3 4 tcp 1040 ------- 1 0.0 4.0 12 46
r 0.258667 3 4 tcp 1040 ------- 1 0.0 4.0 9 38
+ 0.258667 4 3 ack 40 ------- 1 4.0 0.0 9 52
- 0.258667 4 3 ack 40 ------- 1 4.0 0.0 9 52
r 0.25976 0 3 tcp 1040 ------- 1 0.0 4.0 13 47
+ 0.25976 3 4 tcp 1040 ------- 1 0.0 4.0 13 47
- 0.25976 3 4 tcp 1040 ------- 2 1.0 4.1 10 43
r 0.261147 0 3 tcp 1040 ------- 1 0.0 4.0 14 48
+ 0.261147 3 4 tcp 1040 ------- 1 0.0 4.0 14 48
r 0.26144 3 4 tcp 1040 ------- 1 0.0 4.0 10 39
+ 0.26144 4 3 ack 40 ------- 1 4.0 0.0 10 53
- 0.26144 4 3 ack 40 ------- 1 4.0 0.0 10 53
r 0.262533 1 3 tcp 1040 ------- 2 1.0 4.1 11 49
+ 0.262533 3 4 tcp 1040 ------- 2 1.0 4.1 11 49
d 0.262533 3 4 tcp 1040 ------- 2 1.0 4.1 11 49
- 0.262533 3 4 tcp 1040 ------- 1 0.0 4.0 11 45
r 0.263227 4 3 ack 40 ------- 1 4.0 0.0 7 50
+ 0.263227 3 0 ack 40 ------- 1 4.0 0.0 7 50
- 0.263227 3 0 ack 40 ------- 1 4.0 0.0 7 50
r 0.264213 3 4 tcp 1040 ------- 2 1.0 4.1 7 40
+ 0.264213 4 3 ack 40 ------- 2 4.1 1.0 4 54
- 0.264213 4 3 ack 40 ------- 2 4.1 1.0 4 54
- 0.265307 3 4 tcp 1040 ------- 1 0.0 4.0 12 46
r 0.266 4 3 ack 40 ------- 1 4.0 0.0 8 51
+ 0.266 3 0 ack 40 ------- 1 4.0 0.0 8 51
- 0.266 3 0 ack 40 ------- 1 4.0 0.0 8 51
r 0.266987 3 4 tcp 1040 ------- 2 1.0 4.1 8 41
+ 0.266987 4 3 ack 40 ------- 2 4.1 1.0 4 55
- 0.266987 4 3 ack 40 ------- 2 4.1 1.0 4 55
- 0.26808 3 4 tcp 1040 ------- 1 0.0 4.0 13 47
r 0.268773 4 3 ack 40 ------- 1 4.0 0.0 9 52
+ 0.268773 3 0 ack 40 ------- 1 4.0 0.0 9 52
- 0.268773 3 0 ack 40 ------- 1 4.0 0.0 9 52
r 0.26976 3 4 tcp 1040 ------- 2 1.0 4.1 9 42
+ 0.26976 4 3 ack 40 ------- 2 4.1 1.0 4 56
- 0.26976 4 3 ack 40 ------- 2 4.1 1.0 4 56
- 0.270853 3 4 tcp 1040 ------- 1 0.0 4.0 14 48
r 0.271547 4 3 ack 40 ------- 1 4.0 0.0 10 53
+ 0.271547 3 0 ack 40 ------- 1 4.0 0.0 10 53
- 0.271547 3 0 ack 40 ------- 1 4.0 0.0 10 53
r 0.272533 3 4 tcp 1040 ------- 2 1.0 4.1 10 43
+ 0.272533 4 3 ack 40 ------- 2 4.1 1.0 4 57
- 0.272533 4 3 ack 40 ------- 2 4.1 1.0 4 57
r 0.27328 3 0 ack 40 ------- 1 4.0 0.0 7 50
+ 0.27328 0 3 tcp 1040 ------- 1 0.0 4.0 15 58
- 0.27328 0 3 tcp 1040 ------- 1 0.0 4.0 15 58
r 0.27432 4 3 ack 40 ------- 2 4.1 1.0 4 54
+ 0.27432 3 1 ack 40 ------- 2 4.1 1.0 4 54
- 0.27432 3 1 ack 40 ------- 2 4.1 1.0 4 54
r 0.275307 3 4 tcp 1040 ------- 1 0.0 4.0 11 45
+ 0.275307 4 3 ack 40 ------- 1 4.0 0.0 11 59
- 0.275307 4 3 ack 40 ------- 1 4.0 0.0 11 59
r 0.276053 3 0 ack 40 ------- 1 4.0 0.0 8 51
+ 0.276053 0 3 tcp 1040 ------- 1 0.0 4.0 16 60
- 0.276053 0 3 tcp 1040 ------- 1 0.0 4.0 16 60
r 0.277093 4 3 ack 40 ------- 2 4.1 1.0 4 55
+ 0.277093 3 1 ack 40 ------- 2 4.1 1.0 4 55
- 0.277093 3 1 ack 40 ------- 2 4.1 1.0 4 55
r 0.27808 3 4 tcp 1040 ------- 1 0.0 4.0 12 46
+ 0.27808 4 3 ack 40 ------- 1 4.0 0.0 12 61
- 0.27808 4 3 ack 40 ------- 1 4.0 0.0 12 61
r 0.278827 3 0 ack 40 ------- 1 4.0 0.0 9 52
+ 0.278827 0 3 tcp 1040 ------- 1 0.0 4.0 17 62
- 0.278827 0 3 tcp 1040 ------- 1 0.0 4.0 17 62
r 0.279867 4 3 ack 40 ------- 2 4.1 1.0 4 56
+ 0.279867 3 1 ack 40 ------- 2 4.1 1.0 4 56
- 0.279867 3 1 ack 40 ------- 2 4.1 1.0 4 56
r 0.280853 3 4 tcp 1040 ------- 1 0.0 4.0 13 47
+ 0.280853 4 3 ack 40 ------- 1 4.0 0.0 13 63
- 0.280853 4 3 ack 40 ------- 1 4.0 0.0 13 63
r 0.2816 3 0 ack 40 ------- 1 4.0 0.0 10 53
+ 0.2816 0 3 tcp 1040 ------- 1 0.0 4.0 18 64
- 0.2816 0 3 tcp 1040 ------- 1 0.0 4.0 18 64
r 0.28264 4 3 ack 40 ------- 2 4.1 1.0 4 57
+ 0.28264 3 1 ack 40 ------- 2 4.1 1.0 4 57
- 0.28264 3 1 ack 40 ------- 2 4.1 1.0 4 57
r 0.283627 3 4 tcp 1040 ------- 1 0.0 4.0 14 48
+ 0.283627 4 3 ack 40 ------- 1 4.0 0.0 14 65
- 0.283627 4 3 ack 40 ------- 1 4.0 0.0 14 65
r 0.284373 3 1 ack 40 ------- 2 4.1 1.0 4 54
+ 0.284373 1 3 tcp 1040 ------- 2 1.0 4.1 12 66
- 0.284373 1 3 tcp 1040 ------- 2 1.0 4.1 12 66
r 0.284667 0 3 tcp 1040 ------- 1 0.0 4.0 15 58
+ 0.284667 3 4 tcp 1040 ------- 1 0.0 4.0 15 58
- 0.284667 3 4 tcp 1040 ------- 1 0.0 4.0 15 58
r 0.285413 4 3 ack 40 ------- 1 4.0 0.0 11 59
+ 0.285413 3 0 ack 40 ------- 1 4.0 0.0 11 59
- 0.285413 3 0 ack 40 ------- 1 4.0 0.0 11 59
r 0.287147 3 1 ack 40 ------- 2 4.1 1.0 4 55
+ 0.287147 1 3 tcp 1040 ---A--- 2 1.0 4.1 5 67
- 0.287147 1 3 tcp 1040 ---A--- 2 1.0 4.1 5 67
r 0.28744 0 3 tcp 1040 ------- 1 0.0 4.0 16 60
+ 0.28744 3 4 tcp 1040 ------- 1 0.0 4.0 16 60
- 0.28744 3 4 tcp 1040 ------- 1 0.0 4.0 16 60
r 0.288187 4 3 ack 40 ------- 1 4.0 0.0 12 61
+ 0.288187 3 0 ack 40 ------- 1 4.0 0.0 12 61
- 0.288187 3 0 ack 40 ------- 1 4.0 0.0 12 61
r 0.28992 3 1 ack 40 ------- 2 4.1 1.0 4 56
r 0.290213 0 3 tcp 1040 ------- 1 0.0 4.0 17 62
+ 0.290213 3 4 tcp 1040 ------- 1 0.0 4.0 17 62
- 0.290213 3 4 tcp 1040 ------- 1 0.0 4.0 17 62
r 0.29096 4 3 ack 40 ------- 1 4.0 0.0 13 63
+ 0.29096 3 0 ack 40 ------- 1 4.0 0.0 13 63
- 0.29096 3 0 ack 40 ------- 1 4.0 0.0 13 63
r 0.292693 3 1 ack 40 ------- 2 4.1 1.0 4 57
r 0.292987 0 3 tcp 1040 ------- 1 0.0 4.0 18 64
+ 0.292987 3 4 tcp 1040 ------- 1 0.0 4.0 18 64
- 0.292987 3 4 tcp 1040 ------- 1 0.0 4.0 18 64
r 0.293733 4 3 ack 40 ------- 1 4.0 0.0 14 65
+ 0.293733 3 0 ack 40 ------- 1 4.0 0.0 14 65
- 0.293733 3 0 ack 40 ------- 1 4.0 0.0 14 65
r 0.295467 3 0 ack 40 ------- 1 4.0 0.0 11 59
+ 0.295467 0 3 tcp 1040 ------- 1 0.0 4.0 19 68
- 0.295467 0 3 tcp 1040 ------- 1 0.0 4.0 19 68
r 0.29576 1 3 tcp 1040 ------- 2 1.0 4.1 12 66
+ 0.29576 3 4 tcp 1040 ------- 2 1.0 4.1 12 66
- 0.29576 3 4 tcp 1040 ------- 2 1.0 4.1 12 66
r 0.29744 3 4 tcp 1040 ------- 1 0.0 4.0 15 58
+ 0.29744 4 3 ack 40 ------- 1 4.0 0.0 15 69
- 0.29744 4 3 ack 40 ------- 1 4.0 0.0 15 69
r 0.29824 3 0 ack 40 ------- 1 4.0 0.0 12 61
+ 0.29824 0 3 tcp 1040 ------- 1 0.0 4.0 20 70
- 0.29824 0 3 tcp 1040 ------- 1 0.0 4.0 20 70
r 0.298533 1 3 tcp 1040 ---A--- 2 1.0 4.1 5 67
+ 0.298533 3 4 tcp 1040 ---A--- 2 1.0 4.1 5 67
- 0.298533 3 4 tcp 1040 ---A--- 2 1.0 4.1 5 67
r 0.300213 3 4 tcp 1040 ------- 1 0.0 4.0 16 60
+ 0.300213 4 3 ack 40 ------- 1 4.0 0.0 16 71
- 0.300213 4 3 ack 40 ------- 1 4.0 0.0 16 71
r 0.301013 3 0 ack 40 ------- 1 4.0 0.0 13 63
+ 0.301013 0 3 tcp 1040 ------- 1 0.0 4.0 21 72
- 0.301013 0 3 tcp 1040 ------- 1 0.0 4.0 21 72
r 0.302987 3 4 tcp 1040 ------- 1 0.0 4.0 17 62
+ 0.302987 4 3 ack 40 ------- 1 4.0 0.0 17 73
- 0.302987 4 3 ack 40 ------- 1 4.0 0.0 17 73
r 0.303787 3 0 ack 40 ------- 1 4.0 0.0 14 65
+ 0.303787 0 3 tcp 1040 ------- 1 0.0 4.0 22 74
- 0.303787 0 3 tcp 1040 ------- 1 0.0 4.0 22 74
r 0.30576 3 4 tcp 1040 ------- 1 0.0 4.0 18 64
+ 0.30576 4 3 ack 40 ------- 1 4.0 0.0 18 75
- 0.30576 4 3 ack 40 ------- 1 4.0 0.0 18 75
r 0.306853 0 3 tcp 1040 ------- 1 0.0 4.0 19 68
+ 0.306853 3 4 tcp 1040 ------- 1 0.0 4.0 19 68
- 0.306853 3 4 tcp 1040 ------- 1 0.0 4.0 19 68
r 0.307547 4 3 ack 40 ------- 1 4.0 0.0 15 69
+ 0.307547 3 0 ack 40 ------- 1 4.0 0.0 15 69
- 0.307547 3 0 ack 40 ------- 1 4.0 0.0 15 69
r 0.308533 3 4 tcp 1040 ------- 2 1.0 4.1 12 66
+ 0.308533 4 3 ack 40 ------- 2 4.1 1.0 4 76
- 0.308533 4 3 ack 40 ------- 2 4.1 1.0 4 76
r 0.309627 0 3 tcp 1040 ------- 1 0.0 4.0 20 70
+ 0.309627 3 4 tcp 1040 ------- 1 0.0 4.0 20 70
- 0.309627 3 4 tcp 1040 ------- 1 0.0 4.0 20 70
r 0.31032 4 3 ack 40 ------- 1 4.0 0.0 16 71
+ 0.31032 3 0 ack 40 ------- 1 4.0 0.0 16 71
- 0.31032 3 0 ack 40 ------- 1 4.0 0.0 16 71
r 0.311307 3 4 tcp 1040 ---A--- 2 1.0 4.1 5 67
+ 0.311307 4 3 ack 40 ------- 2 4.1 1.0 10 77
- 0.311307 4 3 ack 40 ------- 2 4.1 1.0 10 77
r 0.3124 0 3 tcp 1040 ------- 1 0.0 4.0 21 72
+ 0.3124 3 4 tcp 1040 ------- 1 0.0 4.0 21 72
- 0.3124 3 4 tcp 1040 ------- 1 0.0 4.0 21 72
r 0.313093 4 3 ack 40 ------- 1 4.0 0.0 17 73
+ 0.313093 3 0 ack 40 ------- 1 4.0 0.0 17 73
- 0.313093 3 0 ack 40 ------- 1 4.0 0.0 17 73
r 0.315173 0 3 tcp 1040 ------- 1 0.0 4.0 22 74
+ 0.315173 3 4 tcp 1040 ------- 1 0.0 4.0 22 74
- 0.315173 3 4 tcp 1040 ------- 1 0.0 4.0 22 74
r 0.315867 4 3 ack 40 ------- 1 4.0 0.0 18 75
+ 0.315867 3 0 ack 40 ------- 1 4.0 0.0 18 75
- 0.315867 3 0 ack 40 ------- 1 4.0 0.0 18 75
r 0.3176 3 0 ack 40 ------- 1 4.0 0.0 15 69
+ 0.3176 0 3 tcp 1040 ------- 1 0.0 4.0 23 78
- 0.3176 0 3 tcp 1040 ------- 1 0.0 4.0 23 78
r 0.31864 4 3 ack 40 ------- 2 4.1 1.0 4 76
+ 0.31864 3 1 ack 40 ------- 2 4.1 1.0 4 76
- 0.31864 3 1 ack 40 ------- 2 4.1 1.0 4 76
r 0.319627 3 4 tcp 1040 ------- 1 0.0 4.0 19 68
+ 0.319627 4 3 ack 40 ------- 1 4.0 0.0 19 79
- 0.319627 4 3 ack 40 ------- 1 4.0 0.0 19 79
r 0.320373 3 0 ack 40 ------- 1 4.0 0.0 16 71
+ 0.320373 0 3 tcp 1040 ------- 1 0.0 4.0 24 80
- 0.320373 0 3 tcp 1040 ------- 1 0.0 4.0 24 80
r 0.321413 4 3 ack 40 ------- 2 4.1 1.0 10 77
+ 0.321413 3 1 ack 40 ------- 2 4.1 1.0 10 77
- 0.321413 3 1 ack 40 ------- 2 4.1 1.0 10 77
r 0.3224 3 4 tcp 1040 ------- 1 0.0 4.0 20 70
+ 0.3224 4 3 ack 40 ------- 1 4.0 0.0 20 81
- 0.3224 4 3 ack 40 ------- 1 4.0 0.0 20 81
r 0.323147 3 0 ack 40 ------- 1 4.0 0.0 17 73
+ 0.323147 0 3 tcp 1040 ------- 1 0.0 4.0 25 82
- 0.323147 0 3 tcp 1040 ------- 1 0.0 4.0 25 82
r 0.325173 3 4 tcp 1040 ------- 1 0.0 4.0 21 72
+ 0.325173 4 3 ack 40 ------- 1 4.0 0.0 21 83
- 0.325173 4 3 ack 40 ------- 1 4.0 0.0 21 83
r 0.32592 3 0 ack 40 ------- 1 4.0 0.0 18 75
+ 0.32592 0 3 tcp 1040 ------- 1 0.0 4.0 26 84
- 0.32592 0 3 tcp 1040 ------- 1 0.0 4.0 26 84
r 0.327947 3 4 tcp 1040 ------- 1 0.0 4.0 22 74
+ 0.327947 4 3 ack 40 ------- 1 4.0 0.0 22 85
- 0.327947 4 3 ack 40 ------- 1 4.0 0.0 22 85
r 0.328693 3 1 ack 40 ------- 2 4.1 1.0 4 76
r 0.328987 0 3 tcp 1040 ------- 1 0.0 4.0 23 78
+ 0.328987 3 4 tcp 1040 ------- 1 0.0 4.0 23 78
- 0.328987 3 4 tcp 1040 ------- 1 0.0 4.0 23 78
r 0.329733 4 3 ack 40 ------- 1 4.0 0.0 19 79
+ 0.329733 3 0 ack 40 ------- 1 4.0 0.0 19 79
- 0.329733 3 0 ack 40 ------- 1 4.0 0.0 19 79
r 0.331467 3 1 ack 40 ------- 2 4.1 1.0 10 77
+ 0.331467 1 3 tcp 1040 ------- 2 1.0 4.1 13 86
- 0.331467 1 3 tcp 1040 ------- 2 1.0 4.1 13 86
r 0.33176 0 3 tcp 1040 ------- 1 0.0 4.0 24 80
+ 0.33176 3 4 tcp 1040 ------- 1 0.0 4.0 24 80
- 0.33176 3 4 tcp 1040 ------- 1 0.0 4.0 24 80
r 0.332507 4 3 ack 40 ------- 1 4.0 0.0 20 81
+ 0.332507 3 0 ack 40 ------- 1 4.0 0.0 20 81
- 0.332507 3 0 ack 40 ------- 1 4.0 0.0 20 81
r 0.334533 0 3 tcp 1040 ------- 1 0.0 4.0 25 82
+ 0.334533 3 4 tcp 1040 ------- 1 0.0 4.0 25 82
- 0.334533 3 4 tcp 1040 ------- 1 0.0 4.0 25 82
r 0.33528 4 3 ack 40 ------- 1 4.0 0.0 21 83
+ 0.33528 3 0 ack 40 ------- 1 4.0 0.0 21 83
- 0.33528 3 0 ack 40 ------- 1 4.0 0.0 21 83
r 0.337307 0 3 tcp 1040 ------- 1 0.0 4.0 26 84
+ 0.337307 3 4 tcp 1040 ------- 1 0.0 4.0 26 84
- 0.337307 3 4 tcp 1040 ------- 1 0.0 4.0 26 84
r 0.338053 4 3 ack 40 ------- 1 4.0 0.0 22 85
+ 0.338053 3 0 ack 40 ------- 1 4.0 0.0 22 85
- 0.338053 3 0 ack 40 ------- 1 4.0 0.0 22 85
r 0.339787 3 0 ack 40 ------- 1 4.0 0.0 19 79
+ 0.339787 0 3 tcp 1040 ------- 1 0.0 4.0 27 87
- 0.339787 0 3 tcp 1040 ------- 1 0.0 4.0 27 87
r 0.34176 3 4 tcp 1040 ------- 1 0.0 4.0 23 78
+ 0.34176 4 3 ack 40 ------- 1 4.0 0.0 23 88
- 0.34176 4 3 ack 40 ------- 1 4.0 0.0 23 88
r 0.34256 3 0 ack 40 ------- 1 4.0 0.0 20 81
+ 0.34256 0 3 tcp 1040 ------- 1 0.0 4.0 28 89
- 0.34256 0 3 tcp 1040 ------- 1 0.0 4.0 28 89
r 0.342853 1 3 tcp 1040 ------- 2 1.0 4.1 13 86
+ 0.342853 3 4 tcp 1040 ------- 2 1.0 4.1 13 86
- 0.342853 3 4 tcp 1040 ------- 2 1.0 4.1 13 86
r 0.344533 3 4 tcp 1040 ------- 1 0.0 4.0 24 80
+ 0.344533 4 3 ack 40 ------- 1 4.0 0.0 24 90
- 0.344533 4 3 ack 40 ------- 1 4.0 0.0 24 90
r 0.345333 3 0 ack 40 ------- 1 4.0 0.0 21 83
+ 0.345333 0 3 tcp 1040 ------- 1 0.0 4.0 29 91
- 0.345333 0 3 tcp 1040 ------- 1 0.0 4.0 29 91
r 0.347307 3 4 tcp 1040 ------- 1 0.0 4.0 25 82
+ 0.347307 4 3 ack 40 ------- 1 4.0 0.0 25 92
- 0.347307 4 3 ack 40 ------- 1 4.0 0.0 25 92
r 0.348107 3 0 ack 40 ------- 1 4.0 0.0 22 85
+ 0.348107 0 3 tcp 1040 ------- 1 0.0 4.0 30 93
- 0.348107 0 3 tcp 1040 ------- 1 0.0 4.0 30 93
r 0.35008 3 4 tcp 1040 ------- 1 0.0 4.0 26 84
+ 0.35008 4 3 ack 40 ------- 1 4.0 0.0 26 94
- 0.35008 4 3 ack 40 ------- 1 4.0 0.0 26 94
r 0.351173 0 3 tcp 1040 ------- 1 0.0 4.0 27 87
+ 0.351173 3 4 tcp 1040 ------- 1 0.0 4.0 27 87
- 0.351173 3 4 tcp 1040 ------- 1 0.0 4.0 27 87
r 0.351867 4 3 ack 40 ------- 1 4.0 0.0 23 88
+ 0.351867 3 0 ack 40 ------- 1 4.0 0.0 23 88
- 0.351867 3 0 ack 40 ------- 1 4.0 0.0 23 88
r 0.353947 0 3 tcp 1040 ------- 1 0.0 4.0 28 89
+ 0.353947 3 4 tcp 1040 ------- 1 0.0 4.0 28 89
- 0.353947 3 4 tcp 1040 ------- 1 0.0 4.0 28 89
r 0.35464 4 3 ack 40 ------- 1 4.0 0.0 24 90
+ 0.35464 3 0 ack 40 ------- 1 4.0 0.0 24 90
- 0.35464 3 0 ack 40 ------- 1 4.0 0.0 24 90
r 0.355627 3 4 tcp 1040 ------- 2 1.0 4.1 13 86
+ 0.355627 4 3 ack 40 ------- 2 4.1 1.0 10 95
- 0.355627 4 3 ack 40 ------- 2 4.1 1.0 10 95
r 0.35672 0 3 tcp 1040 ------- 1 0.0 4.0 29 91
+ 0.35672 3 4 tcp 1040 ------- 1 0.0 4.0 29 91
- 0.35672 3 4 tcp 1040 ------- 1 0.0 4.0 29 91
r 0.357413 4 3 ack 40 ------- 1 4.0 0.0 25 92
+ 0.357413 3 0 ack 40 ------- 1 4.0 0.0 25 92
- 0.357413 3 0 ack 40 ------- 1 4.0 0.0 25 92
r 0.359493 0 3 tcp 1040 ------- 1 0.0 4.0 30 93
+ 0.359493 3 4 tcp 1040 ------- 1 0.0 4.0 30 93
- 0.359493 3 4 tcp 1040 ------- 1 0.0 4.0 30 93
r 0.360187 4 3 ack 40 ------- 1 4.0 0.0 26 94
+ 0.360187 3 0 ack 40 ------- 1 4.0 0.0 26 94
- 0.360187 3 0 ack 40 ------- 1 4.0 0.0 26 94
r 0.36192 3 0 ack 40 ------- 1 4.0 0.0 23 88
+ 0.36192 0 3 tcp 1040 ------- 1 0.0 4.0 31 96
- 0.36192 0 3 tcp 1040 ------- 1 0.0 4.0 31 96
r 0.363947 3 4 tcp 1040 ------- 1 0.0 4.0 27 87
+ 0.363947 4 3 ack 40 ------- 1 4.0 0.0 27 97
- 0.363947 4 3 ack 40 ------- 1 4.0 0.0 27 97
r 0.364693 3 0 ack 40 ------- 1 4.0 0.0 24 90
+ 0.364693 0 3 tcp 1040 ------- 1 0.0 4.0 32 98
- 0.364693 0 3 tcp 1040 ------- 1 0.0 4.0 32 98
r 0.365733 4 3 ack 40 ------- 2 4.1 1.0 10 95
+ 0.365733 3 1 ack 40 ------- 2 4.1 1.0 10 95
- 0.365733 3 1 ack 40 ------- 2 4.1 1.0 10 95
r 0.36672 3 4 tcp 1040 ------- 1 0.0 4.0 28 89
+ 0.36672 4 3 ack 40 ------- 1 4.0 0.0 28 99
- 0.36672 4 3 ack 40 ------- 1 4.0 0.0 28 99
r 0.367467 3 0 ack 40 ------- 1 4.0 0.0 25 92
+ 0.367467 0 3 tcp 1040 ------- 1 0.0 4.0 33 100
- 0.367467 0 3 tcp 1040 ------- 1 0.0 4.0 33 100
r 0.369493 3 4 tcp 1040 ------- 1 0.0 4.0 29 91
+ 0.369493 4 3 ack 40 ------- 1 4.0 0.0 29 101
- 0.369493 4 3 ack 40 ------- 1 4.0 0.0 29 101
r 0.37024 3 0 ack 40 ------- 1 4.0 0.0 26 94
+ 0.37024 0 3 tcp 1040 ------- 1 0.0 4.0 34 102
- 0.37024 0 3 tcp 1040 ------- 1 0.0 4.0 34 102
r 0.372267 3 4 tcp 1040 ------- 1 0.0 4.0 30 93
+ 0.372267 4 3 ack 40 ------- 1 4.0 0.0 30 103
- 0.372267 4 3 ack 40 ------- 1 4.0 0.0 30 103
r 0.373307 0 3 tcp 1040 ------- 1 0.0 4.0 31 96
+ 0.373307 3 4 tcp 1040 ------- 1 0.0 4.0 31 96
- 0.373307 3 4 tcp 1040 ------- 1 0.0 4.0 31 96
r 0.374053 4 3 ack 40 ------- 1 4.0 0.0 27 97
+ 0.374053 3 0 ack 40 ------- 1 4.0 0.0 27 97
- 0.374053 3 0 ack 40 ------- 1 4.0 0.0 27 97
r 0.375787 3 1 ack 40 ------- 2 4.1 1.0 10 95
+ 0.375787 1 3 tcp 1040 ------- 2 1.0 4.1 14 104
- 0.375787 1 3 tcp 1040 ------- 2 1.0 4.1 14 104
r 0.37608 0 3 tcp 1040 ------- 1 0.0 4.0 32 98
+ 0.37608 3 4 tcp 1040 ------- 1 0.0 4.0 32 98
- 0.37608 3 4 tcp 1040 ------- 1 0.0 4.0 32 98
r 0.376827 4 3 ack 40 ------- 1 4.0 0.0 28 99
+ 0.376827 3 0 ack 40 ------- 1 4.0 0.0 28 99
- 0.376827 3 0 ack 40 ------- 1 4.0 0.0 28 99
r 0.378853 0 3 tcp 1040 ------- 1 0.0 4.0 33 100
+ 0.378853 3 4 tcp 1040 ------- 1 0.0 4.0 33 100
- 0.378853 3 4 tcp 1040 ------- 1 0.0 4.0 33 100
r 0.3796 4 3 ack 40 ------- 1 4.0 0.0 29 101
+ 0.3796 3 0 ack 40 ------- 1 4.0 0.0 29 101
- 0.3796 3 0 ack 40 ------- 1 4.0 0.0 29 101
r 0.381627 0 3 tcp 1040 ------- 1 0.0 4.0 34 102
+ 0.381627 3 4 tcp 1040 ------- 1 0.0 4.0 34 102
- 0.381627 3 4 tcp 1040 ------- 1 0.0 4.0 34 102
r 0.382373 4 3 ack 40 ------- 1 4.0 0.0 30 103
+ 0.382373 3 0 ack 40 ------- 1 4.0 0.0 30 103
- 0.382373 3 0 ack 40 ------- 1 4.0 0.0 30 103
r 0.384107 3 0 ack 40 ------- 1 4.0 0.0 27 97
+ 0.384107 0 3 tcp 1040 ------- 1 0.0 4.0 35 105
- 0.384107 0 3 tcp 1040 ------- 1 0.0 4.0 35 105
r 0.38608 3 4 tcp 1040 ------- 1 0.0 4.0 31 96
+ 0.38608 4 3 ack 40 ------- 1 4.0 0.0 31 106
- 0.38608 4 3 ack 40 ------- 1 4.0 0.0 31 106
r 0.38688 3 0 ack 40 ------- 1 4.0 0.0 28 99
+ 0.38688 0 3 tcp 1040 ------- 1 0.0 4.0 36 107
- 0.38688 0 3 tcp 1040 ------- 1 0.0 4.0 36 107
r 0.387173 1 3 tcp 1040 ------- 2 1.0 4.1 14 104
+ 0.387173 3 4 tcp 1040 ------- 2 1.0 4.1 14 104
- 0.387173 3 4 tcp 1040 ------- 2 1.0 4.1 14 104
r 0.388853 3 4 tcp 1040 ------- 1 0.0 4.0 32 98
+ 0.388853 4 3 ack 40 ------- 1 4.0 0.0 32 108
- 0.388853 4 3 ack 40 ------- 1 4.0 0.0 32 108
r 0.389653 3 0 ack 40 ------- 1 4.0 0.0 29 101
+ 0.389653 0 3 tcp 1040 ------- 1 0.0 4.0 37 109
- 0.389653 0 3 tcp 1040 ------- 1 0.0 4.0 37 109
+ 0.390187 2 3 tcp 1040 ---A--- 3 2.0 4.2 2 110
- 0.390187 2 3 tcp 1040 ---A--- 3 2.0 4.2 2 110
r 0.391627 3 4 tcp 1040 ------- 1 0.0 4.0 33 100
+ 0.391627 4 3 ack 40 ------- 1 4.0 0.0 33 111
- 0.391627 4 3 ack 40 ------- 1 4.0 0.0 33 111
r 0.392427 3 0 ack 40 ------- 1 4.0 0.0 30 103
+ 0.392427 0 3 tcp 1040 ------- 1 0.0 4.0 38 112
- 0.392427 0 3 tcp 1040 ------- 1 0.0 4.0 38 112
r 0.3944 3 4 tcp 1040 ------- 1 0.0 4.0 34 102
+ 0.3944 4 3 ack 40 ------- 1 4.0 0.0 34 113
- 0.3944 4 3 ack 40 ------- 1 4.0 0.0 34 113
r 0.395493 0 3 tcp 1040 ------- 1 0.0 4.0 35 105
+ 0.395493 3 4 tcp 1040 ------- 1 0.0 4.0 35 105
- 0.395493 3 4 tcp 1040 ------- 1 0.0 4.0 35 105
r 0.396187 4 3 ack 40 ------- 1 4.0 0.0 31 106
+ 0.396187 3 0 ack 40 ------- 1 4.0 0.0 31 106
- 0.396187 3 0 ack 40 ------- 1 4.0 0.0 31 106
r 0.398267 0 3 tcp 1040 ------- 1 0.0 4.0 36 107