V -t * -v 1.0a5 -a 0
A -t * -n 1 -p 0 -o 0x7fffffff -c 30 -a 1
A -t * -h 1 -m 1073741823 -s 0
c -t * -i 1 -n Red
c -t * -i 2 -n Green
c -t * -i 3 -n Blue
n -t * -a 4 -s 4 -S UP -v circle -c black -i black
n -t * -a 0 -s 0 -S UP -v circle -c black -i black
n -t * -a 1 -s 1 -S UP -v circle -c black -i black
n -t * -a 2 -s 2 -S UP -v circle -c black -i black
n -t * -a 3 -s 3 -S UP -v circle -c black -i black
l -t * -s 0 -d 3 -S UP -r 6000000 -D 0.01 -c black -o right-up
l -t * -s 1 -d 3 -S UP -r 6000000 -D 0.01 -c black -o right
l -t * -s 2 -d 3 -S UP -r 6000000 -D 0.01 -c black -o right-down
l -t * -s 3 -d 4 -S UP -r 3000000 -D 0.01 -c black -o right
q -t * -s 4 -d 3 -a 0.5
q -t * -s 3 -d 4 -a 0.5
q -t * -s 3 -d 0 -a 0.5
q -t * -s 0 -d 3 -a 0.5
q -t * -s 3 -d 1 -a 0.5
q -t * -s 1 -d 3 -a 0.5
q -t * -s 3 -d 2 -a 0.5
q -t * -s 2 -d 3 -a 0.5
n -t 0 -s 0 -S DLABEL -l "Sender1" -L ""
n -t 0 -s 1 -S DLABEL -l "Sender2" -L ""
n -t 0 -s 2 -S DLABEL -l "Sender3" -L ""
n -t 0 -s 3 -S DLABEL -l "Gateway" -L ""
n -t 0 -s 4 -S DLABEL -l "Receiver" -L ""
+ -t 0.1 -s 0 -d 3 -p tcp -e 40 -c 1 -i 0 -a 1 -x {0.0 4.0 0 ------- null}
- -t 0.1 -s 0 -d 3 -p tcp -e 40 -c 1 -i 0 -a 1 -x {0.0 4.0 0 ------- null}
h -t 0.1 -s 0 -d 3 -p tcp -e 40 -c 1 -i 0 -a 1 -x {0.0 4.0 -1 ------- null}
+ -t 0.1 -s 1 -d 3 -p tcp -e 40 -c 2 -i 1 -a 2 -x {1.0 4.1 0 ------- null}
- -t 0.1 -s 1 -d 3 -p tcp -e 40 -c 2 -i 1 -a 2 -x {1.0 4.1 0 ------- null}
h -t 0.1 -s 1 -d 3 -p tcp -e 40 -c 2 -i 1 -a 2 -x {1.0 4.1 -1 ------- null}
+ -t 0.1 -s 2 -d 3 -p tcp -e 40 -c 3 -i 2 -a 3 -x {2.0 4.2 0 ------- null}
- -t 0.1 -s 2 -d 3 -p tcp -e 40 -c 3 -i 2 -a 3 -x {2.0 4.2 0 ------- null}
h -t 0.1 -s 2 -d 3 -p tcp -e 40 -c 3 -i 2 -a 3 -x {2.0 4.2 -1 ------- null}
r -t 0.110053333333333 -s 0 -d 3 -p tcp -e 40 -c 1 -i 0 -a 1 -x {0.0 4.0 0 ------- null}
+ -t 0.110053333333333 -s 3 -d 4 -p tcp -e 40 -c 1 -i 0 -a 1 -x {0.0 4.0 0 ------- null}
- -t 0.110053333333333 -s 3 -d 4 -p tcp -e 40 -c 1 -i 0 -a 1 -x {0.0 4.0 0 ------- null}
h -t 0.110053333333333 -s 3 -d 4 -p tcp -e 40 -c 1 -i 0 -a 1 -x {0.0 4.0 -1 ------- null}
r -t 0.110053333333333 -s 1 -d 3 -p tcp -e 40 -c 2 -i 1 -a 2 -x {1.0 4.1 0 ------- null}
+ -t 0.110053333333333 -s 3 -d 4 -p tcp -e 40 -c 2 -i 1 -a 2 -x {1.0 4.1 0 ------- null}
r -t 0.110053333333333 -s 2 -d 3 -p tcp -e 40 -c 3 -i 2 -a 3 -x {2.0 4.2 0 ------- null}
+ -t 0.110053333333333 -s 3 -d 4 -p tcp -e 40 -c 3 -i 2 -a 3 -x {2.0 4.2 0 ------- null}
- -t 0.11016 -s 3 -d 4 -p tcp -e 40 -c 2 -i 1 -a 2 -x {1.0 4.1 0 ------- null}
h -t 0.11016 -s 3 -d 4 -p tcp -e 40 -c 2 -i 1 -a 2 -x {1.0 4.1 -1 ------- null}
- -t 0.110266666666667 -s 3 -d 4 -p tcp -e 40 -c 3 -i 2 -a 3 -x {2.0 4.2 0 ------- null}
h -t 0.110266666666667 -s 3 -d 4 -p tcp -e 40 -c 3 -i 2 -a 3 -x {2.0 4.2 -1 ------- null}
r -t 0.12016 -s 3 -d 4 -p tcp -e 40 -c 1 -i 0 -a 1 -x {0.0 4.0 0 ------- null}
+ -t 0.12016 -s 4 -d 3 -p ack -e 40 -c 1 -i 3 -a 1 -x {4.0 0.0 0 ------- null}
- -t 0.12016 -s 4 -d 3 -p ack -e 40 -c 1 -i 3 -a 1 -x {4.0 0.0 0 ------- null}
h -t 0.12016 -s 4 -d 3 -p ack -e 40 -c 1 -i 3 -a 1 -x {4.0 0.0 -1 ------- null}
r -t 0.120266666666667 -s 3 -d 4 -p tcp -e 40 -c 2 -i 1 -a 2 -x {1.0 4.1 0 ------- null}
+ -t 0.120266666666667 -s 4 -d 3 -p ack -e 40 -c 2 -i 4 -a 2 -x {4.1 1.0 0 ------- null}
- -t 0.120266666666667 -s 4 -d 3 -p ack -e 40 -c 2 -i 4 -a 2 -x {4.1 1.0 0 ------- null}
h -t 0.120266666666667 -s 4 -d 3 -p ack -e 40 -c 2 -i 4 -a 2 -x {4.1 1.0 -1 ------- null}
r -t 0.120373333333333 -s 3 -d 4 -p tcp -e 40 -c 3 -i 2 -a 3 -x {2.0 4.2 0 ------- null}
+ -t 0.120373333333333 -s 4 -d 3 -p ack -e 40 -c 3 -i 5 -a 3 -x {4.2 2.0 0 ------- null}
- -t 0.120373333333333 -s 4 -d 3 -p ack -e 40 -c 3 -i 5 -a 3 -x {4.2 2.0 0 ------- null}
h -t 0.120373333333333 -s 4 -d 3 -p ack -e 40 -c 3 -i 5 -a 3 -x {4.2 2.0 -1 ------- null}
r -t 0.130266666666667 -s 4 -d 3 -p ack -e 40 -c 1 -i 3 -a 1 -x {4.0 0.0 0 ------- null}
+ -t 0.130266666666667 -s 3 -d 0 -p ack -e 40 -c 1 -i 3 -a 1 -x {4.0 0.0 0 ------- null}
- -t 0.130266666666667 -s 3 -d 0 -p ack -e 40 -c 1 -i 3 -a 1 -x {4.0 0.0 0 ------- null}
h -t 0.130266666666667 -s 3 -d 0 -p ack -e 40 -c 1 -i 3 -a 1 -x {4.0 0.0 -1 ------- null}
r -t 0.130373333333333 -s 4 -d 3 -p ack -e 40 -c 2 -i 4 -a 2 -x {4.1 1.0 0 ------- null}
+ -t 0.130373333333333 -s 3 -d 1 -p ack -e 40 -c 2 -i 4 -a 2 -x {4.1 1.0 0 ------- null}
- -t 0.130373333333333 -s 3 -d 1 -p ack -e 40 -c 2 -i 4 -a 2 -x {4.1 1.0 0 ------- null}
h -t 0.130373333333333 -s 3 -d 1 -p ack -e 40 -c 2 -i 4 -a 2 -x {4.1 1.0 -1 ------- null}
r -t 0.13048 -s 4 -d 3 -p ack -e 40 -c 3 -i 5 -a 3 -x {4.2 2.0 0 ------- null}
+ -t 0.13048 -s 3 -d 2 -p ack -e 40 -c 3 -i 5 -a 3 -x {4.2 2.0 0 ------- null}
- -t 0.13048 -s 3 -d 2 -p ack -e 40 -c 3 -i 5 -a 3 -x {4.2 2.0 0 ------- null}
h -t 0.13048 -s 3 -d 2 -p ack -e 40 -c 3 -i 5 -a 3 -x {4.2 2.0 -1 ------- null}
r -t 0.14032 -s 3 -d 0 -p ack -e 40 -c 1 -i 3 -a 1 -x {4.0 0.0 0 ------- null}
+ -t 0.14032 -s 0 -d 3 -p tcp -e 1040 -c 1 -i 6 -a 1 -x {0.0 4.0 1 ------- null}
- -t 0.14032 -s 0 -d 3 -p tcp -e 1040 -c 1 -i 6 -a 1 -x {0.0 4.0 1 ------- null}
h -t 0.14032 -s 0 -d 3 -p tcp -e 1040 -c 1 -i 6 -a 1 -x {0.0 4.0 -1 ------- null}
+ -t 0.14032 -s 0 -d 3 -p tcp -e 1040 -c 1 -i 7 -a 1 -x {0.0 4.0 2 ------- null}
r -t 0.140426666666667 -s 3 -d 1 -p ack -e 40 -c 2 -i 4 -a 2 -x {4.1 1.0 0 ------- null}
+ -t 0.140426666666667 -s 1 -d 3 -p tcp -e 1040 -c 2 -i 8 -a 2 -x {1.0 4.1 1 ------- null}
- -t 0.140426666666667 -s 1 -d 3 -p tcp -e 1040 -c 2 -i 8 -a 2 -x {1.0 4.1 1 ------- null}
h -t 0.140426666666667 -s 1 -d 3 -p tcp -e 1040 -c 2 -i 8 -a 2 -x {1.0 4.1 -1 ------- null}
+ -t 0.140426666666667 -s 1 -d 3 -p tcp -e 1040 -c 2 -i 9 -a 2 -x {1.0 4.1 2 ------- null}
r -t 0.140533333333333 -s 3 -d 2 -p ack -e 40 -c 3 -i 5 -a 3 -x {4.2 2.0 0 ------- null}
+ -t 0.140533333333333 -s 2 -d 3 -p tcp -e 1040 -c 3 -i 10 -a 3 -x {2.0 4.2 1 ------- null}
- -t 0.140533333333333 -s 2 -d 3 -p tcp -e 1040 -c 3 -i 10 -a 3 -x {2.0 4.2 1 ------- null}
h -t 0.140533333333333 -s 2 -d 3 -p tcp -e 1040 -c 3 -i 10 -a 3 -x {2.0 4.2 -1 ------- null}
+ -t 0.140533333333333 -s 2 -d 3 -p tcp -e 1040 -c 3 -i 11 -a 3 -x {2.0 4.2 2 ------- null}
- -t 0.141706666666667 -s 0 -d 3 -p tcp -e 1040 -c 1 -i 7 -a 1 -x {0.0 4.0 2 ------- null}
h -t 0.141706666666667 -s 0 -d 3 -p tcp -e 1040 -c 1 -i 7 -a 1 -x {0.0 4.0 -1 ------- null}
- -t 0.141813333333333 -s 1 -d 3 -p tcp -e 1040 -c 2 -i 9 -a 2 -x {1.0 4.1 2 ------- null}
h -t 0.141813333333333 -s 1 -d 3 -p tcp -e 1040 -c 2 -i 9 -a 2 -x {1.0 4.1 -1 ------- null}
- -t 0.14192 -s 2 -d 3 -p tcp -e 1040 -c 3 -i 11 -a 3 -x {2.0 4.2 2 ------- null}
h -t 0.14192 -s 2 -d 3 -p tcp -e 1040 -c 3 -i 11 -a 3 -x {2.0 4.2 -1 ------- null}
r -t 0.151706666666667 -s 0 -d 3 -p tcp -e 1040 -c 1 -i 6 -a 1 -x {0.0 4.0 1 ------- null}
+ -t 0.151706666666667 -s 3 -d 4 -p tcp -e 1040 -c 1 -i 6 -a 1 -x {0.0 4.0 1 ------- null}
- -t 0.151706666666667 -s 3 -d 4 -p tcp -e 1040 -c 1 -i 6 -a 1 -x {0.0 4.0 1 ------- null}
h -t 0.151706666666667 -s 3 -d 4 -p tcp -e 1040 -c 1 -i 6 -a 1 -x {0.0 4.0 -1 ------- null}
r -t 0.151813333333333 -s 1 -d 3 -p tcp -e 1040 -c 2 -i 8 -a 2 -x {1.0 4.1 1 ------- null}
+ -t 0.151813333333333 -s 3 -d 4 -p tcp -e 1040 -c 2 -i 8 -a 2 -x {1.0 4.1 1 ------- null}
r -t 0.15192 -s 2 -d 3 -p tcp -e 1040 -c 3 -i 10 -a 3 -x {2.0 4.2 1 ------- null}
+ -t 0.15192 -s 3 -d 4 -p tcp -e 1040 -c 3 -i 10 -a 3 -x {2.0 4.2 1 ------- null}
r -t 0.153093333333333 -s 0 -d 3 -p tcp -e 1040 -c 1 -i 7 -a 1 -x {0.0 4.0 2 ------- null}
+ -t 0.153093333333333 -s 3 -d 4 -p tcp -e 1040 -c 1 -i 7 -a 1 -x {0.0 4.0 2 ------- null}
r -t 0.1532 -s 1 -d 3 -p tcp -e 1040 -c 2 -i 9 -a 2 -x {1.0 4.1 2 ------- null}
+ -t 0.1532 -s 3 -d 4 -p tcp -e 1040 -c 2 -i 9 -a 2 -x {1.0 4.1 2 ------- null}
r -t 0.153306666666667 -s 2 -d 3 -p tcp -e 1040 -c 3 -i 11 -a 3 -x {2.0 4.2 2 ------- null}
+ -t 0.153306666666667 -s 3 -d 4 -p tcp -e 1040 -c 3 -i 11 -a 3 -x {2.0 4.2 2 ------- null}
d -t 0.153306666666667 -s 3 -d 4 -p tcp -e 1040 -c 3 -i 11 -a 3 -x {2.0 4.2 2 ------- null}
- -t 0.15448 -s 3 -d 4 -p tcp -e 1040 -c 2 -i 8 -a 2 -x {1.0 4.1 1 ------- null}
h -t 0.15448 -s 3 -d 4 -p tcp -e 1040 -c 2 -i 8 -a 2 -x {1.0 4.1 -1 ------- null}
- -t 0.157253333333333 -s 3 -d 4 -p tcp -e 1040 -c 3 -i 10 -a 3 -x {2.0 4.2 1 ------- null}
h -t 0.157253333333333 -s 3 -d 4 -p tcp -e 1040 -c 3 -i 10 -a 3 -x {2.0 4.2 -1 ------- null}
- -t 0.160026666666667 -s 3 -d 4 -p tcp -e 1040 -c 1 -i 7 -a 1 -x {0.0 4.0 2 ------- null}
h -t 0.160026666666667 -s 3 -d 4 -p tcp -e 1040 -c 1 -i 7 -a 1 -x {0.0 4.0 -1 ------- null}
- -t 0.1628 -s 3 -d 4 -p tcp -e 1040 -c 2 -i 9 -a 2 -x {1.0 4.1 2 ------- null}
h -t 0.1628 -s 3 -d 4 -p tcp -e 1040 -c 2 -i 9 -a 2 -x {1.0 4.1 -1 ------- null}
r -t 0.16448 -s 3 -d 4 -p tcp -e 1040 -c 1 -i 6 -a 1 -x {0.0 4.0 1 ------- null}
+ -t 0.16448 -s 4 -d 3 -p ack -e 40 -c 1 -i 12 -a 1 -x {4.0 0.0 1 ------- null}
- -t 0.16448 -s 4 -d 3 -p ack -e 40 -c 1 -i 12 -a 1 -x {4.0 0.0 1 ------- null}
h -t 0.16448 -s 4 -d 3 -p ack -e 40 -c 1 -i 12 -a 1 -x {4.0 0.0 -1 ------- null}
r -t 0.167253333333333 -s 3 -d 4 -p tcp -e 1040 -c 2 -i 8 -a 2 -x {1.0 4.1 1 ------- null}
+ -t 0.167253333333333 -s 4 -d 3 -p ack -e 40 -c 2 -i 13 -a 2 -x {4.1 1.0 1 ------- null}
- -t 0.167253333333333 -s 4 -d 3 -p ack -e 40 -c 2 -i 13 -a 2 -x {4.1 1.0 1 ------- null}
h -t 0.167253333333333 -s 4 -d 3 -p ack -e 40 -c 2 -i 13 -a 2 -x {4.1 1.0 -1 ------- null}
r -t 0.170026666666667 -s 3 -d 4 -p tcp -e 1040 -c 3 -i 10 -a 3 -x {2.0 4.2 1 ------- null}
+ -t 0.170026666666667 -s 4 -d 3 -p ack -e 40 -c 3 -i 14 -a 3 -x {4.2 2.0 1 ------- null}
- -t 0.170026666666667 -s 4 -d 3 -p ack -e 40 -c 3 -i 14 -a 3 -x {4.2 2.0 1 ------- null}
h -t 0.170026666666667 -s 4 -d 3 -p ack -e 40 -c 3 -i 14 -a 3 -x {4.2 2.0 -1 ------- null}
r -t 0.1728 -s 3 -d 4 -p tcp -e 1040 -c 1 -i 7 -a 1 -x {0.0 4.0 2 ------- null}
+ -t 0.1728 -s 4 -d 3 -p ack -e 40 -c 1 -i 15 -a 1 -x {4.0 0.0 2 ------- null}
- -t 0.1728 -s 4 -d 3 -p ack -e 40 -c 1 -i 15 -a 1 -x {4.0 0.0 2 ------- null}
h -t 0.1728 -s 4 -d 3 -p ack -e 40 -c 1 -i 15 -a 1 -x {4.0 0.0 -1 ------- null}
r -t 0.174586666666667 -s 4 -d 3 -p ack -e 40 -c 1 -i 12 -a 1 -x {4.0 0.0 1 ------- null}
+ -t 0.174586666666667 -s 3 -d 0 -p ack -e 40 -c 1 -i 12 -a 1 -x {4.0 0.0 1 ------- null}
- -t 0.174586666666667 -s 3 -d 0 -p ack -e 40 -c 1 -i 12 -a 1 -x {4.0 0.0 1 ------- null}
h -t 0.174586666666667 -s 3 -d 0 -p ack -e 40 -c 1 -i 12 -a 1 -x {4.0 0.0 -1 ------- null}
r -t 0.175573333333333 -s 3 -d 4 -p tcp -e 1040 -c 2 -i 9 -a 2 -x {1.0 4.1 2 ------- null}
+ -t 0.175573333333333 -s 4 -d 3 -p ack -e 40 -c 2 -i 16 -a 2 -x {4.1 1.0 2 ------- null}
- -t 0.175573333333333 -s 4 -d 3 -p ack -e 40 -c 2 -i 16 -a 2 -x {4.1 1.0 2 ------- null}
h -t 0.175573333333333 -s 4 -d 3 -p ack -e 40 -c 2 -i 16 -a 2 -x {4.1 1.0 -1 ------- null}
r -t 0.17736 -s 4 -d 3 -p ack -e 40 -c 2 -i 13 -a 2 -x {4.1 1.0 1 ------- null}
+ -t 0.17736 -s 3 -d 1 -p ack -e 40 -c 2 -i 13 -a 2 -x {4.1 1.0 1 ------- null}
- -t 0.17736 -s 3 -d 1 -p ack -e 40 -c 2 -i 13 -a 2 -x {4.1 1.0 1 ------- null}
h -t 0.17736 -s 3 -d 1 -p ack -e 40 -c 2 -i 13 -a 2 -x {4.1 1.0 -1 ------- null}
r -t 0.180133333333333 -s 4 -d 3 -p ack -e 40 -c 3 -i 14 -a 3 -x {4.2 2.0 1 ------- null}
+ -t 0.180133333333333 -s 3 -d 2 -p ack -e 40 -c 3 -i 14 -a 3 -x {4.2 2.0 1 ------- null}
- -t 0.180133333333333 -s 3 -d 2 -p ack -e 40 -c 3 -i 14 -a 3 -x {4.2 2.0 1 ------- null}
h -t 0.180133333333333 -s 3 -d 2 -p ack -e 40 -c 3 -i 14 -a 3 -x {4.2 2.0 -1 ------- null}
r -t 0.182906666666667 -s 4 -d 3 -p ack -e 40 -c 1 -i 15 -a 1 -x {4.0 0.0 2 ------- null}
+ -t 0.182906666666667 -s 3 -d 0 -p ack -e 40 -c 1 -i 15 -a 1 -x {4.0 0.0 2 ------- null}
- -t 0.182906666666667 -s 3 -d 0 -p ack -e 40 -c 1 -i 15 -a 1 -x {4.0 0.0 2 ------- null}
h -t 0.182906666666667 -s 3 -d 0 -p ack -e 40 -c 1 -i 15 -a 1 -x {4.0 0.0 -1 ------- null}
r -t 0.18464 -s 3 -d 0 -p ack -e 40 -c 1 -i 12 -a 1 -x {4.0 0.0 1 ------- null}
+ -t 0.18464 -s 0 -d 3 -p tcp -e 1040 -c 1 -i 17 -a 1 -x {0.0 4.0 3 ------- null}
- -t 0.18464 -s 0 -d 3 -p tcp -e 1040 -c 1 -i 17 -a 1 -x {0.0 4.0 3 ------- null}
h -t 0.18464 -s 0 -d 3 -p tcp -e 1040 -c 1 -i 17 -a 1 -x {0.0 4.0 -1 ------- null}
+ -t 0.18464 -s 0 -d 3 -p tcp -e 1040 -c 1 -i 18 -a 1 -x {0.0 4.0 4 ------- null}
r -t 0.18568 -s 4 -d 3 -p ack -e 40 -c 2 -i 16 -a 2 -x {4.1 1.0 2 ------- null}
+ -t 0.18568 -s 3 -d 1 -p ack -e 40 -c 2 -i 16 -a 2 -x {4.1 1.0 2 ------- null}
- -t 0.18568 -s 3 -d 1 -p ack -e 40 -c 2 -i 16 -a 2 -x {4.1 1.0 2 ------- null}
h -t 0.18568 -s 3 -d 1 -p ack -e 40 -c 2 -i 16 -a 2 -x {4.1 1.0 -1 ------- null}
- -t 0.186026666666667 -s 0 -d 3 -p tcp -e 1040 -c 1 -i 18 -a 1 -x {0.0 4.0 4 ------- null}
h -t 0.186026666666667 -s 0 -d 3 -p tcp -e 1040 -c 1 -i 18 -a 1 -x {0.0 4.0 -1 ------- null}
r -t 0.187413333333333 -s 3 -d 1 -p ack -e 40 -c 2 -i 13 -a 2 -x {4.1 1.0 1 ------- null}
+ -t 0.187413333333333 -s 1 -d 3 -p tcp -e 1040 -c 2 -i 19 -a 2 -x {1.0 4.1 3 ------- null}
- -t 0.187413333333333 -s 1 -d 3 -p tcp -e 1040 -c 2 -i 19 -a 2 -x {1.0 4.1 3 ------- null}
h -t 0.187413333333333 -s 1 -d 3 -p tcp -e 1040 -c 2 -i 19 -a 2 -x {1.0 4.1 -1 ------- null}
+ -t 0.187413333333333 -s 1 -d 3 -p tcp -e 1040 -c 2 -i 20 -a 2 -x {1.0 4.1 4 ------- null}
- -t 0.1888 -s 1 -d 3 -p tcp -e 1040 -c 2 -i 20 -a 2 -x {1.0 4.1 4 ------- null}
h -t 0.1888 -s 1 -d 3 -p tcp -e 1040 -c 2 -i 20 -a 2 -x {1.0 4.1 -1 ------- null}
r -t 0.190186666666667 -s 3 -d 2 -p ack -e 40 -c 3 -i 14 -a 3 -x {4.2 2.0 1 ------- null}
+ -t 0.190186666666667 -s 2 -d 3 -p tcp -e 1040 -c 3 -i 21 -a 3 -x {2.0 4.2 3 ------- null}
- -t 0.190186666666667 -s 2 -d 3 -p tcp -e 1040 -c 3 -i 21 -a 3 -x {2.0 4.2 3 ------- null}
h -t 0.190186666666667 -s 2 -d 3 -p tcp -e 1040 -c 3 -i 21 -a 3 -x {2.0 4.2 -1 ------- null}
+ -t 0.190186666666667 -s 2 -d 3 -p tcp -e 1040 -c 3 -i 22 -a 3 -x {2.0 4.2 4 ------- null}
- -t 0.191573333333333 -s 2 -d 3 -p tcp -e 1040 -c 3 -i 22 -a 3 -x {2.0 4.2 4 ------- null}
h -t 0.191573333333333 -s 2 -d 3 -p tcp -e 1040 -c 3 -i 22 -a 3 -x {2.0 4.2 -1 ------- null}
r -t 0.19296 -s 3 -d 0 -p ack -e 40 -c 1 -i 15 -a 1 -x {4.0 0.0 2 ------- null}
+ -t 0.19296 -s 0 -d 3 -p tcp -e 1040 -c 1 -i 23 -a 1 -x {0.0 4.0 5 ------- null}
- -t 0.19296 -s 0 -d 3 -p tcp -e 1040 -c 1 -i 23 -a 1 -x {0.0 4.0 5 ------- null}
h -t 0.19296 -s 0 -d 3 -p tcp -e 1040 -c 1 -i 23 -a 1 -x {0.0 4.0 -1 ------- null}
+ -t 0.19296 -s 0 -d 3 -p tcp -e 1040 -c 1 -i 24 -a 1 -x {0.0 4.0 6 ------- null}
- -t 0.194346666666667 -s 0 -d 3 -p tcp -e 1040 -c 1 -i 24 -a 1 -x {0.0 4.0 6 ------- null}
h -t 0.194346666666667 -s 0 -d 3 -p tcp -e 1040 -c 1 -i 24 -a 1 -x {0.0 4.0 -1 ------- null}
r -t 0.195733333333333 -s 3 -d 1 -p ack -e 40 -c 2 -i 16 -a 2 -x {4.1 1.0 2 ------- null}
+ -t 0.195733333333333 -s 1 -d 3 -p tcp -e 1040 -c 2 -i 25 -a 2 -x {1.0 4.1 5 ------- null}
- -t 0.195733333333333 -s 1 -d 3 -p tcp -e 1040 -c 2 -i 25 -a 2 -x {1.0 4.1 5 ------- null}
h -t 0.195733333333333 -s 1 -d 3 -p tcp -e 1040 -c 2 -i 25 -a 2 -x {1.0 4.1 -1 ------- null}
+ -t 0.195733333333333 -s 1 -d 3 -p tcp -e 1040 -c 2 -i 26 -a 2 -x {1.0 4.1 6 ------- null}
r -t 0.196026666666667 -s 0 -d 3 -p tcp -e 1040 -c 1 -i 17 -a 1 -x {0.0 4.0 3 ------- null}
+ -t 0.196026666666667 -s 3 -d 4 -p tcp -e 1040 -c 1 -i 17 -a 1 -x {0.0 4.0 3 ------- null}
- -t 0.196026666666667 -s 3 -d 4 -p tcp -e 1040 -c 1 -i 17 -a 1 -x {0.0 4.0 3 ------- null}
h -t 0.196026666666667 -s 3 -d 4 -p tcp -e 1040 -c 1 -i 17 -a 1 -x {0.0 4.0 -1 ------- null}
- -t 0.19712 -s 1 -d 3 -p tcp -e 1040 -c 2 -i 26 -a 2 -x {1.0 4.1 6 ------- null}
h -t 0.19712 -s 1 -d 3 -p tcp -e 1040 -c 2 -i 26 -a 2 -x {1.0 4.1 -1 ------- null}
r -t 0.197413333333333 -s 0 -d 3 -p tcp -e 1040 -c 1 -i 18 -a 1 -x {0.0 4.0 4 ------- null}
+ -t 0.197413333333333 -s 3 -d 4 -p tcp -e 1040 -c 1 -i 18 -a 1 -x {0.0 4.0 4 ------- null}
r -t 0.1988 -s 1 -d 3 -p tcp -e 1040 -c 2 -i 19 -a 2 -x {1.0 4.1 3 ------- null}
+ -t 0.1988 -s 3 -d 4 -p tcp -e 1040 -c 2 -i 19 -a 2 -x {1.0 4.1 3 ------- null}
- -t 0.1988 -s 3 -d 4 -p tcp -e 1040 -c 1 -i 18 -a 1 -x {0.0 4.0 4 ------- null}
h -t 0.1988 -s 3 -d 4 -p tcp -e 1040 -c 1 -i 18 -a 1 -x {0.0 4.0 -1 ------- null}
r -t 0.200186666666667 -s 1 -d 3 -p tcp -e 1040 -c 2 -i 20 -a 2 -x {1.0 4.1 4 ------- null}
+ -t 0.200186666666667 -s 3 -d 4 -p tcp -e 1040 -c 2 -i 20 -a 2 -x {1.0 4.1 4 ------- null}
r -t 0.201573333333333 -s 2 -d 3 -p tcp -e 1040 -c 3 -i 21 -a 3 -x {2.0 4.2 3 ------- null}
+ -t 0.201573333333333 -s 3 -d 4 -p tcp -e 1040 -c 3 -i 21 -a 3 -x {2.0 4.2 3 ------- null}
- -t 0.201573333333333 -s 3 -d 4 -p tcp -e 1040 -c 2 -i 19 -a 2 -x {1.0 4.1 3 ------- null}
h -t 0.201573333333333 -s 3 -d 4 -p tcp -e 1040 -c 2 -i 19 -a 2 -x {1.0 4.1 -1 ------- null}
r -t 0.20296 -s 2 -d 3 -p tcp -e 1040 -c 3 -i 22 -a 3 -x {2.0 4.2 4 ------- null}
+ -t 0.20296 -s 3 -d 4 -p tcp -e 1040 -c 3 -i 22 -a 3 -x {2.0 4.2 4 ------- null}
r -t 0.204346666666667 -s 0 -d 3 -p tcp -e 1040 -c 1 -i 23 -a 1 -x {0.0 4.0 5 ------- null}
+ -t 0.204346666666667 -s 3 -d 4 -p tcp -e 1040 -c 1 -i 23 -a 1 -x {0.0 4.0 5 ------- null}
- -t 0.204346666666667 -s 3 -d 4 -p tcp -e 1040 -c 2 -i 20 -a 2 -x {1.0 4.1 4 ------- null}
h -t 0.204346666666667 -s 3 -d 4 -p tcp -e 1040 -c 2 -i 20 -a 2 -x {1.0 4.1 -1 ------- null}
r -t 0.205733333333333 -s 0 -d 3 -p tcp -e 1040 -c 1 -i 24 -a 1 -x {0.0 4.0 6 ------- null}
+ -t 0.205733333333333 -s 3 -d 4 -p tcp -e 1040 -c 1 -i 24 -a 1 -x {0.0 4.0 6 ------- null}
r -t 0.20712 -s 1 -d 3 -p tcp -e 1040 -c 2 -i 25 -a 2 -x {1.0 4.1 5 ------- null}
+ -t 0.20712 -s 3 -d 4 -p tcp -e 1040 -c 2 -i 25 -a 2 -x {1.0 4.1 5 ------- null}
d -t 0.20712 -s 3 -d 4 -p tcp -e 1040 -c 2 -i 25 -a 2 -x {1.0 4.1 5 ------- null}
- -t 0.20712 -s 3 -d 4 -p tcp -e 1040 -c 3 -i 21 -a 3 -x {2.0 4.2 3 ------- null}
h -t 0.20712 -s 3 -d 4 -p tcp -e 1040 -c 3 -i 21 -a 3 -x {2.0 4.2 -1 ------- null}
r -t 0.208506666666667 -s 1 -d 3 -p tcp -e 1040 -c 2 -i 26 -a 2 -x {1.0 4.1 6 ------- null}
+ -t 0.208506666666667 -s 3 -d 4 -p tcp -e 1040 -c 2 -i 26 -a 2 -x {1.0 4.1 6 ------- null}
r -t 0.2088 -s 3 -d 4 -p tcp -e 1040 -c 1 -i 17 -a 1 -x {0.0 4.0 3 ------- null}
+ -t 0.2088 -s 4 -d 3 -p ack -e 40 -c 1 -i 27 -a 1 -x {4.0 0.0 3 ------- null}
- -t 0.2088 -s 4 -d 3 -p ack -e 40 -c 1 -i 27 -a 1 -x {4.0 0.0 3 ------- null}
h -t 0.2088 -s 4 -d 3 -p ack -e 40 -c 1 -i 27 -a 1 -x {4.0 0.0 -1 ------- null}
- -t 0.209893333333333 -s 3 -d 4 -p tcp -e 1040 -c 3 -i 22 -a 3 -x {2.0 4.2 4 ------- null}
h -t 0.209893333333333 -s 3 -d 4 -p tcp -e 1040 -c 3 -i 22 -a 3 -x {2.0 4.2 -1 ------- null}
r -t 0.211573333333333 -s 3 -d 4 -p tcp -e 1040 -c 1 -i 18 -a 1 -x {0.0 4.0 4 ------- null}
+ -t 0.211573333333333 -s 4 -d 3 -p ack -e 40 -c 1 -i 28 -a 1 -x {4.0 0.0 4 ------- null}
- -t 0.211573333333333 -s 4 -d 3 -p ack -e 40 -c 1 -i 28 -a 1 -x {4.0 0.0 4 ------- null}
h -t 0.211573333333333 -s 4 -d 3 -p ack -e 40 -c 1 -i 28 -a 1 -x {4.0 0.0 -1 ------- null}
- -t 0.212666666666667 -s 3 -d 4 -p tcp -e 1040 -c 1 -i 23 -a 1 -x {0.0 4.0 5 ------- null}
h -t 0.212666666666667 -s 3 -d 4 -p tcp -e 1040 -c 1 -i 23 -a 1 -x {0.0 4.0 -1 ------- null}
r -t 0.214346666666667 -s 3 -d 4 -p tcp -e 1040 -c 2 -i 19 -a 2 -x {1.0 4.1 3 ------- null}
+ -t 0.214346666666667 -s 4 -d 3 -p ack -e 40 -c 2 -i 29 -a 2 -x {4.1 1.0 3 ------- null}
- -t 0.214346666666667 -s 4 -d 3 -p ack -e 40 -c 2 -i 29 -a 2 -x {4.1 1.0 3 ------- null}
h -t 0.214346666666667 -s 4 -d 3 -p ack -e 40 -c 2 -i 29 -a 2 -x {4.1 1.0 -1 ------- null}
- -t 0.21544 -s 3 -d 4 -p tcp -e 1040 -c 1 -i 24 -a 1 -x {0.0 4.0 6 ------- null}
h -t 0.21544 -s 3 -d 4 -p tcp -e 1040 -c 1 -i 24 -a 1 -x {0.0 4.0 -1 ------- null}
r -t 0.21712 -s 3 -d 4 -p tcp -e 1040 -c 2 -i 20 -a 2 -x {1.0 4.1 4 ------- null}
+ -t 0.21712 -s 4 -d 3 -p ack -e 40 -c 2 -i 30 -a 2 -x {4.1 1.0 4 ------- null}
- -t 0.21712 -s 4 -d 3 -p ack -e 40 -c 2 -i 30 -a 2 -x {4.1 1.0 4 ------- null}
h -t 0.21712 -s 4 -d 3 -p ack -e 40 -c 2 -i 30 -a 2 -x {4.1 1.0 -1 ------- null}
- -t 0.218213333333333 -s 3 -d 4 -p tcp -e 1040 -c 2 -i 26 -a 2 -x {1.0 4.1 6 ------- null}
h -t 0.218213333333333 -s 3 -d 4 -p tcp -e 1040 -c 2 -i 26 -a 2 -x {1.0 4.1 -1 ------- null}
r -t 0.218906666666667 -s 4 -d 3 -p ack -e 40 -c 1 -i 27 -a 1 -x {4.0 0.0 3 ------- null}
+ -t 0.218906666666667 -s 3 -d 0 -p ack -e 40 -c 1 -i 27 -a 1 -x {4.0 0.0 3 ------- null}
- -t 0.218906666666667 -s 3 -d 0 -p ack -e 40 -c 1 -i 27 -a 1 -x {4.0 0.0 3 ------- null}
h -t 0.218906666666667 -s 3 -d 0 -p ack -e 40 -c 1 -i 27 -a 1 -x {4.0 0.0 -1 ------- null}
r -t 0.219893333333333 -s 3 -d 4 -p tcp -e 1040 -c 3 -i 21 -a 3 -x {2.0 4.2 3 ------- null}
+ -t 0.219893333333333 -s 4 -d 3 -p ack -e 40 -c 3 -i 31 -a 3 -x {4.2 2.0 1 ------- null}
- -t 0.219893333333333 -s 4 -d 3 -p ack -e 40 -c 3 -i 31 -a 3 -x {4.2 2.0 1 ------- null}
h -t 0.219893333333333 -s 4 -d 3 -p ack -e 40 -c 3 -i 31 -a 3 -x {4.2 2.0 -1 ------- null}
r -t 0.22168 -s 4 -d 3 -p ack -e 40 -c 1 -i 28 -a 1 -x {4.0 0.0 4 ------- null}
+ -t 0.22168 -s 3 -d 0 -p ack -e 40 -c 1 -i 28 -a 1 -x {4.0 0.0 4 ------- null}
- -t 0.22168 -s 3 -d 0 -p ack -e 40 -c 1 -i 28 -a 1 -x {4.0 0.0 4 ------- null}
h -t 0.22168 -s 3 -d 0 -p ack -e 40 -c 1 -i 28 -a 1 -x {4.0 0.0 -1 ------- null}
r -t 0.222666666666667 -s 3 -d 4 -p tcp -e 1040 -c 3 -i 22 -a 3 -x {2.0 4.2 4 ------- null}
+ -t 0.222666666666667 -s 4 -d 3 -p ack -e 40 -c 3 -i 32 -a 3 -x {4.2 2.0 1 ------- null}
- -t 0.222666666666667 -s 4 -d 3 -p ack -e 40 -c 3 -i 32 -a 3 -x {4.2 2.0 1 ------- null}
h -t 0.222666666666667 -s 4 -d 3 -p ack -e 40 -c 3 -i 32 -a 3 -x {4.2 2.0 -1 ------- null}
r -t 0.224453333333333 -s 4 -d 3 -p ack -e 40 -c 2 -i 29 -a 2 -x {4.1 1.0 3 ------- null}
+ -t 0.224453333333333 -s 3 -d 1 -p ack -e 40 -c 2 -i 29 -a 2 -x {4.1 1.0 3 ------- null}
- -t 0.224453333333333 -s 3 -d 1 -p ack -e 40 -c 2 -i 29 -a 2 -x {4.1 1.0 3 ------- null}
h -t 0.224453333333333 -s 3 -d 1 -p ack -e 40 -c 2 -i 29 -a 2 -x {4.1 1.0 -1 ------- null}
r -t 0.22544 -s 3 -d 4 -p tcp -e 1040 -c 1 -i 23 -a 1 -x {0.0 4.0 5 ------- null}
+ -t 0.22544 -s 4 -d 3 -p ack -e 40 -c 1 -i 33 -a 1 -x {4.0 0.0 5 ------- null}
- -t 0.22544 -s 4 -d 3 -p ack -e 40 -c 1 -i 33 -a 1 -x {4.0 0.0 5 ------- null}
h -t 0.22544 -s 4 -d 3 -p ack -e 40 -c 1 -i 33 -a 1 -x {4.0 0.0 -1 ------- null}
r -t 0.227226666666667 -s 4 -d 3 -p ack -e 40 -c 2 -i 30 -a 2 -x {4.1 1.0 4 ------- null}
+ -t 0.227226666666667 -s 3 -d 1 -p ack -e 40 -c 2 -i 30 -a 2 -x {4.1 1.0 4 ------- null}
- -t 0.227226666666667 -s 3 -d 1 -p ack -e 40 -c 2 -i 30 -a 2 -x {4.1 1.0 4 ------- null}
h -t 0.227226666666667 -s 3 -d 1 -p ack -e 40 -c 2 -i 30 -a 2 -x {4.1 1.0 -1 ------- null}
r -t 0.228213333333333 -s 3 -d 4 -p tcp -e 1040 -c 1 -i 24 -a 1 -x {0.0 4.0 6 ------- null}
+ -t 0.228213333333333 -s 4 -d 3 -p ack -e 40 -c 1 -i 34 -a 1 -x {4.0 0.0 6 ------- null}
- -t 0.228213333333333 -s 4 -d 3 -p ack -e 40 -c 1 -i 34 -a 1 -x {4.0 0.0 6 ------- null}
h -t 0.228213333333333 -s 4 -d 3 -p ack -e 40 -c 1 -i 34 -a 1 -x {4.0 0.0 -1 ------- null}
r -t 0.22896 -s 3 -d 0 -p ack -e 40 -c 1 -i 27 -a 1 -x {4.0 0.0 3 ------- null}
+ -t 0.22896 -s 0 -d 3 -p tcp -e 1040 -c 1 -i 35 -a 1 -x {0.0 4.0 7 ------- null}
- -t 0.22896 -s 0 -d 3 -p tcp -e 1040 -c 1 -i 35 -a 1 -x {0.0 4.0 7 ------- null}
h -t 0.22896 -s 0 -d 3 -p tcp -e 1040 -c 1 -i 35 -a 1 -x {0.0 4.0 -1 ------- null}
+ -t 0.22896 -s 0 -d 3 -p tcp -e 1040 -c 1 -i 36 -a 1 -x {0.0 4.0 8 ------- null}
r -t 0.23 -s 4 -d 3 -p ack -e 40 -c 3 -i 31 -a 3 -x {4.2 2.0 1 ------- null}
+ -t 0.23 -s 3 -d 2 -p ack -e 40 -c 3 -i 31 -a 3 -x {4.2 2.0 1 ------- null}
- -t 0.23 -s 3 -d 2 -p ack -e 40 -c 3 -i 31 -a 3 -x {4.2 2.0 1 ------- null}
h -t 0.23 -s 3 -d 2 -p ack -e 40 -c 3 -i 31 -a 3 -x {4.2 2.0 -1 ------- null}
- -t 0.230346666666667 -s 0 -d 3 -p tcp -e 1040 -c 1 -i 36 -a 1 -x {0.0 4.0 8 ------- null}
h -t 0.230346666666667 -s 0 -d 3 -p tcp -e 1040 -c 1 -i 36 -a 1 -x {0.0 4.0 -1 ------- null}
r -t 0.230986666666667 -s 3 -d 4 -p tcp -e 1040 -c 2 -i 26 -a 2 -x {1.0 4.1 6 ------- null}
+ -t 0.230986666666667 -s 4 -d 3 -p ack -e 40 -c 2 -i 37 -a 2 -x {4.1 1.0 4 ------- null}
- -t 0.230986666666667 -s 4 -d 3 -p ack -e 40 -c 2 -i 37 -a 2 -x {4.1 1.0 4 ------- null}
h -t 0.230986666666667 -s 4 -d 3 -p ack -e 40 -c 2 -i 37 -a 2 -x {4.1 1.0 -1 ------- null}
r -t 0.231733333333333 -s 3 -d 0 -p ack -e 40 -c 1 -i 28 -a 1 -x {4.0 0.0 4 ------- null}
+ -t 0.231733333333333 -s 0 -d 3 -p tcp -e 1040 -c 1 -i 38 -a 1 -x {0.0 4.0 9 ------- null}
+ -t 0.231733333333333 -s 0 -d 3 -p tcp -e 1040 -c 1 -i 39 -a 1 -x {0.0 4.0 10 ------- null}
- -t 0.231733333333333 -s 0 -d 3 -p tcp -e 1040 -c 1 -i 38 -a 1 -x {0.0 4.0 9 ------- null}
h -t 0.231733333333333 -s 0 -d 3 -p tcp -e 1040 -c 1 -i 38 -a 1 -x {0.0 4.0 -1 ------- null}
r -t 0.232773333333333 -s 4 -d 3 -p ack -e 40 -c 3 -i 32 -a 3 -x {4.2 2.0 1 ------- null}
+ -t 0.232773333333333 -s 3 -d 2 -p ack -e 40 -c 3 -i 32 -a 3 -x {4.2 2.0 1 ------- null}
- -t 0.232773333333333 -s 3 -d 2 -p ack -e 40 -c 3 -i 32 -a 3 -x {4.2 2.0 1 ------- null}
h -t 0.232773333333333 -s 3 -d 2 -p ack -e 40 -c 3 -i 32 -a 3 -x {4.2 2.0 -1 ------- null}
- -t 0.23312 -s 0 -d 3 -p tcp -e 1040 -c 1 -i 39 -a 1 -x {0.0 4.0 10 ------- null}
h -t 0.23312 -s 0 -d 3 -p tcp -e 1040 -c 1 -i 39 -a 1 -x {0.0 4.0 -1 ------- null}
r -t 0.234506666666667 -s 3 -d 1 -p ack -e 40 -c 2 -i 29 -a 2 -x {4.1 1.0 3 ------- null}
+ -t 0.234506666666667 -s 1 -d 3 -p tcp -e 1040 -c 2 -i 40 -a 2 -x {1.0 4.1 7 ------- null}
- -t 0.234506666666667 -s 1 -d 3 -p tcp -e 1040 -c 2 -i 40 -a 2 -x {1.0 4.1 7 ------- null}
h -t 0.234506666666667 -s 1 -d 3 -p tcp -e 1040 -c 2 -i 40 -a 2 -x {1.0 4.1 -1 ------- null}
+ -t 0.234506666666667 -s 1 -d 3 -p tcp -e 1040 -c 2 -i 41 -a 2 -x {1.0 4.1 8 ------- null}
r -t 0.235546666666667 -s 4 -d 3 -p ack -e 40 -c 1 -i 33 -a 1 -x {4.0 0.0 5 ------- null}
+ -t 0.235546666666667 -s 3 -d 0 -p ack -e 40 -c 1 -i 33 -a 1 -x {4.0 0.0 5 ------- null}
- -t 0.235546666666667 -s 3 -d 0 -p ack -e 40 -c 1 -i 33 -a 1 -x {4.0 0.0 5 ------- null}
h -t 0.235546666666667 -s 3 -d 0 -p ack -e 40 -c 1 -i 33 -a 1 -x {4.0 0.0 -1 ------- null}
- -t 0.235893333333333 -s 1 -d 3 -p tcp -e 1040 -c 2 -i 41 -a 2 -x {1.0 4.1 8 ------- null}
h -t 0.235893333333333 -s 1 -d 3 -p tcp -e 1040 -c 2 -i 41 -a 2 -x {1.0 4.1 -1 ------- null}
r -t 0.23728 -s 3 -d 1 -p ack -e 40 -c 2 -i 30 -a 2 -x {4.1 1.0 4 ------- null}
+ -t 0.23728 -s 1 -d 3 -p tcp -e 1040 -c 2 -i 42 -a 2 -x {1.0 4.1 9 ------- null}
+ -t 0.23728 -s 1 -d 3 -p tcp -e 1040 -c 2 -i 43 -a 2 -x {1.0 4.1 10 ------- null}
- -t 0.23728 -s 1 -d 3 -p tcp -e 1040 -c 2 -i 42 -a 2 -x {1.0 4.1 9 ------- null}
h -t 0.23728 -s 1 -d 3 -p tcp -e 1040 -c 2 -i 42 -a 2 -x {1.0 4.1 -1 ------- null}
r -t 0.23832 -s 4 -d 3 -p ack -e 40 -c 1 -i 34 -a 1 -x {4.0 0.0 6 ------- null}
+ -t 0.23832 -s 3 -d 0 -p ack -e 40 -c 1 -i 34 -a 1 -x {4.0 0.0 6 ------- null}
- -t 0.23832 -s 3 -d 0 -p ack -e 40 -c 1 -i 34 -a 1 -x {4.0 0.0 6 ------- null}
h -t 0.23832 -s 3 -d 0 -p ack -e 40 -c 1 -i 34 -a 1 -x {4.0 0.0 -1 ------- null}
- -t 0.238666666666667 -s 1 -d 3 -p tcp -e 1040 -c 2 -i 43 -a 2 -x {1.0 4.1 10 ------- null}
h -t 0.238666666666667 -s 1 -d 3 -p tcp -e 1040 -c 2 -i 43 -a 2 -x {1.0 4.1 -1 ------- null}
r -t 0.240053333333333 -s 3 -d 2 -p ack -e 40 -c 3 -i 31 -a 3 -x {4.2 2.0 1 ------- null}
+ -t 0.240053333333333 -s 2 -d 3 -p tcp -e 1040 -c 3 -i 44 -a 3 -x {2.0 4.2 5 ------- null}
- -t 0.240053333333333 -s 2 -d 3 -p tcp -e 1040 -c 3 -i 44 -a 3 -x {2.0 4.2 5 ------- null}
h -t 0.240053333333333 -s 2 -d 3 -p tcp -e 1040 -c 3 -i 44 -a 3 -x {2.0 4.2 -1 ------- null}
r -t 0.240346666666667 -s 0 -d 3 -p tcp -e 1040 -c 1 -i 35 -a 1 -x {0.0 4.0 7 ------- null}
+ -t 0.240346666666667 -s 3 -d 4 -p tcp -e 1040 -c 1 -i 35 -a 1 -x {0.0 4.0 7 ------- null}
- -t 0.240346666666667 -s 3 -d 4 -p tcp -e 1040 -c 1 -i 35 -a 1 -x {0.0 4.0 7 ------- null}
h -t 0.240346666666667 -s 3 -d 4 -p tcp -e 1040 -c 1 -i 35 -a 1 -x {0.0 4.0 -1 ------- null}
r -t 0.241093333333333 -s 4 -d 3 -p ack -e 40 -c 2 -i 37 -a 2 -x {4.1 1.0 4 ------- null}
+ -t 0.241093333333333 -s 3 -d 1 -p ack -e 40 -c 2 -i 37 -a 2 -x {4.1 1.0 4 ------- null}
- -t 0.241093333333333 -s 3 -d 1 -p ack -e 40 -c 2 -i 37 -a 2 -x {4.1 1.0 4 ------- null}
h -t 0.241093333333333 -s 3 -d 1 -p ack -e 40 -c 2 -i 37 -a 2 -x {4.1 1.0 -1 ------- null}
r -t 0.241733333333333 -s 0 -d 3 -p tcp -e 1040 -c 1 -i 36 -a 1 -x {0.0 4.0 8 ------- null}
+ -t 0.241733333333333 -s 3 -d 4 -p tcp -e 1040 -c 1 -i 36 -a 1 -x {0.0 4.0 8 ------- null}
r -t 0.242826666666667 -s 3 -d 2 -p ack -e 40 -c 3 -i 32 -a 3 -x {4.2 2.0 1 ------- null}
- -t 0.24312 -s 3 -d 4 -p tcp -e 1040 -c 1 -i 36 -a 1 -x {0.0 4.0 8 ------- null}
h -t 0.24312 -s 3 -d 4 -p tcp -e 1040 -c 1 -i 36 -a 1 -x {0.0 4.0 -1 ------- null}
r -t 0.24312 -s 0 -d 3 -p tcp -e 1040 -c 1 -i 38 -a 1 -x {0.0 4.0 9 ------- null}
+ -t 0.24312 -s 3 -d 4 -p tcp -e 1040 -c 1 -i 38 -a 1 -x {0.0 4.0 9 ------- null}
r -t 0.244506666666667 -s 0 -d 3 -p tcp -e 1040 -c 1 -i 39 -a 1 -x {0.0 4.0 10 ------- null}
+ -t 0.244506666666667 -s 3 -d 4 -p tcp -e 1040 -c 1 -i 39 -a 1 -x {0.0 4.0 10 ------- null}
r -t 0.2456 -s 3 -d 0 -p ack -e 40 -c 1 -i 33 -a 1 -x {4.0 0.0 5 ------- null}
+ -t 0.2456 -s 0 -d 3 -p tcp -e 1040 -c 1 -i 45 -a 1 -x {0.0 4.0 11 ------- null}
- -t 0.2456 -s 0 -d 3 -p tcp -e 1040 -c 1 -i 45 -a 1 -x {0.0 4.0 11 ------- null}
h -t 0.2456 -s 0 -d 3 -p tcp -e 1040 -c 1 -i 45 -a 1 -x {0.0 4.0 -1 ------- null}
+ -t 0.2456 -s 0 -d 3 -p tcp -e 1040 -c 1 -i 46 -a 1 -x {0.0 4.0 12 ------- null}
r -t 0.245893333333333 -s 1 -d 3 -p tcp -e 1040 -c 2 -i 40 -a 2 -x {1.0 4.1 7 ------- null}
+ -t 0.245893333333333 -s 3 -d 4 -p tcp -e 1040 -c 2 -i 40 -a 2 -x {1.0 4.1 7 ------- null}
- -t 0.245893333333333 -s 3 -d 4 -p tcp -e 1040 -c 1 -i 38 -a 1 -x {0.0 4.0 9 ------- null}
h -t 0.245893333333333 -s 3 -d 4 -p tcp -e 1040 -c 1 -i 38 -a 1 -x {0.0 4.0 -1 ------- null}
- -t 0.246986666666667 -s 0 -d 3 -p tcp -e 1040 -c 1 -i 46 -a 1 -x {0.0 4.0 12 ------- null}
h -t 0.246986666666667 -s 0 -d 3 -p tcp -e 1040 -c 1 -i 46 -a 1 -x {0.0 4.0 -1 ------- null}
r -t 0.24728 -s 1 -d 3 -p tcp -e 1040 -c 2 -i 41 -a 2 -x {1.0 4.1 8 ------- null}