V -t * -v 1.0a5 -a 0
A -t * -n 1 -p 0 -o 0x7fffffff -c 30 -a 1
A -t * -h 1 -m 1073741823 -s 0
c -t * -i 1 -n Red
c -t * -i 2 -n Green
c -t * -i 3 -n Blue
n -t * -a 4 -s 4 -S UP -v circle -c black -i black
n -t * -a 0 -s 0 -S UP -v circle -c black -i black
n -t * -a 5 -s 5 -S UP -v circle -c black -i black
n -t * -a 1 -s 1 -S UP -v circle -c black -i black
n -t * -a 6 -s 6 -S UP -v circle -c black -i black
n -t * -a 2 -s 2 -S UP -v circle -c black -i black
n -t * -a 7 -s 7 -S UP -v circle -c black -i black
n -t * -a 3 -s 3 -S UP -v circle -c black -i black
l -t * -s 0 -d 3 -S UP -r 1000000 -D 0.01 -c black -o right-up
l -t * -s 1 -d 3 -S UP -r 1000000 -D 0.01 -c black -o right
l -t * -s 2 -d 3 -S UP -r 1000000 -D 0.01 -c black -o right-down
l -t * -s 3 -d 4 -S UP -r 1000000 -D 0.01 -c black -o middle
l -t * -s 4 -d 5 -S UP -r 1000000 -D 0.01 -c black -o right-up
l -t * -s 4 -d 6 -S UP -r 1000000 -D 0.01 -c black -o right
l -t * -s 4 -d 7 -S UP -r 1000000 -D 0.01 -c black -o right-down
+ -t 0 -s 2 -d 3 -p cbr -e 500 -c 1 -i 0 -a 1 -x {2.0 5.0 0 ------- null}
- -t 0 -s 2 -d 3 -p cbr -e 500 -c 1 -i 0 -a 1 -x {2.0 5.0 0 ------- null}
h -t 0 -s 2 -d 3 -p cbr -e 500 -c 1 -i 0 -a 1 -x {2.0 5.0 -1 ------- null}
+ -t 0.005 -s 2 -d 3 -p cbr -e 500 -c 1 -i 1 -a 1 -x {2.0 5.0 1 ------- null}
- -t 0.005 -s 2 -d 3 -p cbr -e 500 -c 1 -i 1 -a 1 -x {2.0 5.0 1 ------- null}
h -t 0.005 -s 2 -d 3 -p cbr -e 500 -c 1 -i 1 -a 1 -x {2.0 5.0 -1 ------- null}
+ -t 0.01 -s 2 -d 3 -p cbr -e 500 -c 1 -i 2 -a 1 -x {2.0 5.0 2 ------- null}
- -t 0.01 -s 2 -d 3 -p cbr -e 500 -c 1 -i 2 -a 1 -x {2.0 5.0 2 ------- null}
h -t 0.01 -s 2 -d 3 -p cbr -e 500 -c 1 -i 2 -a 1 -x {2.0 5.0 -1 ------- null}
r -t 0.014 -s 2 -d 3 -p cbr -e 500 -c 1 -i 0 -a 1 -x {2.0 5.0 0 ------- null}
+ -t 0.014 -s 3 -d 4 -p cbr -e 500 -c 1 -i 0 -a 1 -x {2.0 5.0 0 ------- null}
- -t 0.014 -s 3 -d 4 -p cbr -e 500 -c 1 -i 0 -a 1 -x {2.0 5.0 0 ------- null}
h -t 0.014 -s 3 -d 4 -p cbr -e 500 -c 1 -i 0 -a 1 -x {2.0 5.0 -1 ------- null}
+ -t 0.015 -s 2 -d 3 -p cbr -e 500 -c 1 -i 3 -a 1 -x {2.0 5.0 3 ------- null}
- -t 0.015 -s 2 -d 3 -p cbr -e 500 -c 1 -i 3 -a 1 -x {2.0 5.0 3 ------- null}
h -t 0.015 -s 2 -d 3 -p cbr -e 500 -c 1 -i 3 -a 1 -x {2.0 5.0 -1 ------- null}
r -t 0.019 -s 2 -d 3 -p cbr -e 500 -c 1 -i 1 -a 1 -x {2.0 5.0 1 ------- null}
+ -t 0.019 -s 3 -d 4 -p cbr -e 500 -c 1 -i 1 -a 1 -x {2.0 5.0 1 ------- null}
- -t 0.019 -s 3 -d 4 -p cbr -e 500 -c 1 -i 1 -a 1 -x {2.0 5.0 1 ------- null}
h -t 0.019 -s 3 -d 4 -p cbr -e 500 -c 1 -i 1 -a 1 -x {2.0 5.0 -1 ------- null}
+ -t 0.02 -s 2 -d 3 -p cbr -e 500 -c 1 -i 4 -a 1 -x {2.0 5.0 4 ------- null}
- -t 0.02 -s 2 -d 3 -p cbr -e 500 -c 1 -i 4 -a 1 -x {2.0 5.0 4 ------- null}
h -t 0.02 -s 2 -d 3 -p cbr -e 500 -c 1 -i 4 -a 1 -x {2.0 5.0 -1 ------- null}
r -t 0.024 -s 2 -d 3 -p cbr -e 500 -c 1 -i 2 -a 1 -x {2.0 5.0 2 ------- null}
+ -t 0.024 -s 3 -d 4 -p cbr -e 500 -c 1 -i 2 -a 1 -x {2.0 5.0 2 ------- null}
- -t 0.024 -s 3 -d 4 -p cbr -e 500 -c 1 -i 2 -a 1 -x {2.0 5.0 2 ------- null}
h -t 0.024 -s 3 -d 4 -p cbr -e 500 -c 1 -i 2 -a 1 -x {2.0 5.0 -1 ------- null}
+ -t 0.025 -s 2 -d 3 -p cbr -e 500 -c 1 -i 5 -a 1 -x {2.0 5.0 5 ------- null}
- -t 0.025 -s 2 -d 3 -p cbr -e 500 -c 1 -i 5 -a 1 -x {2.0 5.0 5 ------- null}
h -t 0.025 -s 2 -d 3 -p cbr -e 500 -c 1 -i 5 -a 1 -x {2.0 5.0 -1 ------- null}
r -t 0.028 -s 3 -d 4 -p cbr -e 500 -c 1 -i 0 -a 1 -x {2.0 5.0 0 ------- null}
+ -t 0.028 -s 4 -d 5 -p cbr -e 500 -c 1 -i 0 -a 1 -x {2.0 5.0 0 ------- null}
- -t 0.028 -s 4 -d 5 -p cbr -e 500 -c 1 -i 0 -a 1 -x {2.0 5.0 0 ------- null}
h -t 0.028 -s 4 -d 5 -p cbr -e 500 -c 1 -i 0 -a 1 -x {2.0 5.0 -1 ------- null}
r -t 0.029 -s 2 -d 3 -p cbr -e 500 -c 1 -i 3 -a 1 -x {2.0 5.0 3 ------- null}
+ -t 0.029 -s 3 -d 4 -p cbr -e 500 -c 1 -i 3 -a 1 -x {2.0 5.0 3 ------- null}
- -t 0.029 -s 3 -d 4 -p cbr -e 500 -c 1 -i 3 -a 1 -x {2.0 5.0 3 ------- null}
h -t 0.029 -s 3 -d 4 -p cbr -e 500 -c 1 -i 3 -a 1 -x {2.0 5.0 -1 ------- null}
+ -t 0.03 -s 2 -d 3 -p cbr -e 500 -c 1 -i 6 -a 1 -x {2.0 5.0 6 ------- null}
- -t 0.03 -s 2 -d 3 -p cbr -e 500 -c 1 -i 6 -a 1 -x {2.0 5.0 6 ------- null}
h -t 0.03 -s 2 -d 3 -p cbr -e 500 -c 1 -i 6 -a 1 -x {2.0 5.0 -1 ------- null}
r -t 0.033 -s 3 -d 4 -p cbr -e 500 -c 1 -i 1 -a 1 -x {2.0 5.0 1 ------- null}
+ -t 0.033 -s 4 -d 5 -p cbr -e 500 -c 1 -i 1 -a 1 -x {2.0 5.0 1 ------- null}
- -t 0.033 -s 4 -d 5 -p cbr -e 500 -c 1 -i 1 -a 1 -x {2.0 5.0 1 ------- null}
h -t 0.033 -s 4 -d 5 -p cbr -e 500 -c 1 -i 1 -a 1 -x {2.0 5.0 -1 ------- null}
r -t 0.034 -s 2 -d 3 -p cbr -e 500 -c 1 -i 4 -a 1 -x {2.0 5.0 4 ------- null}
+ -t 0.034 -s 3 -d 4 -p cbr -e 500 -c 1 -i 4 -a 1 -x {2.0 5.0 4 ------- null}
- -t 0.034 -s 3 -d 4 -p cbr -e 500 -c 1 -i 4 -a 1 -x {2.0 5.0 4 ------- null}
h -t 0.034 -s 3 -d 4 -p cbr -e 500 -c 1 -i 4 -a 1 -x {2.0 5.0 -1 ------- null}
+ -t 0.035 -s 2 -d 3 -p cbr -e 500 -c 1 -i 7 -a 1 -x {2.0 5.0 7 ------- null}
- -t 0.035 -s 2 -d 3 -p cbr -e 500 -c 1 -i 7 -a 1 -x {2.0 5.0 7 ------- null}
h -t 0.035 -s 2 -d 3 -p cbr -e 500 -c 1 -i 7 -a 1 -x {2.0 5.0 -1 ------- null}
r -t 0.038 -s 3 -d 4 -p cbr -e 500 -c 1 -i 2 -a 1 -x {2.0 5.0 2 ------- null}
+ -t 0.038 -s 4 -d 5 -p cbr -e 500 -c 1 -i 2 -a 1 -x {2.0 5.0 2 ------- null}
- -t 0.038 -s 4 -d 5 -p cbr -e 500 -c 1 -i 2 -a 1 -x {2.0 5.0 2 ------- null}
h -t 0.038 -s 4 -d 5 -p cbr -e 500 -c 1 -i 2 -a 1 -x {2.0 5.0 -1 ------- null}
r -t 0.039 -s 2 -d 3 -p cbr -e 500 -c 1 -i 5 -a 1 -x {2.0 5.0 5 ------- null}
+ -t 0.039 -s 3 -d 4 -p cbr -e 500 -c 1 -i 5 -a 1 -x {2.0 5.0 5 ------- null}
- -t 0.039 -s 3 -d 4 -p cbr -e 500 -c 1 -i 5 -a 1 -x {2.0 5.0 5 ------- null}
h -t 0.039 -s 3 -d 4 -p cbr -e 500 -c 1 -i 5 -a 1 -x {2.0 5.0 -1 ------- null}
+ -t 0.04 -s 2 -d 3 -p cbr -e 500 -c 1 -i 8 -a 1 -x {2.0 5.0 8 ------- null}
- -t 0.04 -s 2 -d 3 -p cbr -e 500 -c 1 -i 8 -a 1 -x {2.0 5.0 8 ------- null}
h -t 0.04 -s 2 -d 3 -p cbr -e 500 -c 1 -i 8 -a 1 -x {2.0 5.0 -1 ------- null}
r -t 0.042 -s 4 -d 5 -p cbr -e 500 -c 1 -i 0 -a 1 -x {2.0 5.0 0 ------- null}
r -t 0.043 -s 3 -d 4 -p cbr -e 500 -c 1 -i 3 -a 1 -x {2.0 5.0 3 ------- null}
+ -t 0.043 -s 4 -d 5 -p cbr -e 500 -c 1 -i 3 -a 1 -x {2.0 5.0 3 ------- null}
- -t 0.043 -s 4 -d 5 -p cbr -e 500 -c 1 -i 3 -a 1 -x {2.0 5.0 3 ------- null}
h -t 0.043 -s 4 -d 5 -p cbr -e 500 -c 1 -i 3 -a 1 -x {2.0 5.0 -1 ------- null}
r -t 0.044 -s 2 -d 3 -p cbr -e 500 -c 1 -i 6 -a 1 -x {2.0 5.0 6 ------- null}
+ -t 0.044 -s 3 -d 4 -p cbr -e 500 -c 1 -i 6 -a 1 -x {2.0 5.0 6 ------- null}
- -t 0.044 -s 3 -d 4 -p cbr -e 500 -c 1 -i 6 -a 1 -x {2.0 5.0 6 ------- null}
h -t 0.044 -s 3 -d 4 -p cbr -e 500 -c 1 -i 6 -a 1 -x {2.0 5.0 -1 ------- null}
+ -t 0.045 -s 2 -d 3 -p cbr -e 500 -c 1 -i 9 -a 1 -x {2.0 5.0 9 ------- null}
- -t 0.045 -s 2 -d 3 -p cbr -e 500 -c 1 -i 9 -a 1 -x {2.0 5.0 9 ------- null}
h -t 0.045 -s 2 -d 3 -p cbr -e 500 -c 1 -i 9 -a 1 -x {2.0 5.0 -1 ------- null}
r -t 0.047 -s 4 -d 5 -p cbr -e 500 -c 1 -i 1 -a 1 -x {2.0 5.0 1 ------- null}
r -t 0.048 -s 3 -d 4 -p cbr -e 500 -c 1 -i 4 -a 1 -x {2.0 5.0 4 ------- null}
+ -t 0.048 -s 4 -d 5 -p cbr -e 500 -c 1 -i 4 -a 1 -x {2.0 5.0 4 ------- null}
- -t 0.048 -s 4 -d 5 -p cbr -e 500 -c 1 -i 4 -a 1 -x {2.0 5.0 4 ------- null}
h -t 0.048 -s 4 -d 5 -p cbr -e 500 -c 1 -i 4 -a 1 -x {2.0 5.0 -1 ------- null}
r -t 0.049 -s 2 -d 3 -p cbr -e 500 -c 1 -i 7 -a 1 -x {2.0 5.0 7 ------- null}
+ -t 0.049 -s 3 -d 4 -p cbr -e 500 -c 1 -i 7 -a 1 -x {2.0 5.0 7 ------- null}
- -t 0.049 -s 3 -d 4 -p cbr -e 500 -c 1 -i 7 -a 1 -x {2.0 5.0 7 ------- null}
h -t 0.049 -s 3 -d 4 -p cbr -e 500 -c 1 -i 7 -a 1 -x {2.0 5.0 -1 ------- null}
+ -t 0.05 -s 2 -d 3 -p cbr -e 500 -c 1 -i 10 -a 1 -x {2.0 5.0 10 ------- null}
- -t 0.05 -s 2 -d 3 -p cbr -e 500 -c 1 -i 10 -a 1 -x {2.0 5.0 10 ------- null}
h -t 0.05 -s 2 -d 3 -p cbr -e 500 -c 1 -i 10 -a 1 -x {2.0 5.0 -1 ------- null}
r -t 0.052 -s 4 -d 5 -p cbr -e 500 -c 1 -i 2 -a 1 -x {2.0 5.0 2 ------- null}
r -t 0.053 -s 3 -d 4 -p cbr -e 500 -c 1 -i 5 -a 1 -x {2.0 5.0 5 ------- null}
+ -t 0.053 -s 4 -d 5 -p cbr -e 500 -c 1 -i 5 -a 1 -x {2.0 5.0 5 ------- null}
- -t 0.053 -s 4 -d 5 -p cbr -e 500 -c 1 -i 5 -a 1 -x {2.0 5.0 5 ------- null}
h -t 0.053 -s 4 -d 5 -p cbr -e 500 -c 1 -i 5 -a 1 -x {2.0 5.0 -1 ------- null}
r -t 0.054 -s 2 -d 3 -p cbr -e 500 -c 1 -i 8 -a 1 -x {2.0 5.0 8 ------- null}
+ -t 0.054 -s 3 -d 4 -p cbr -e 500 -c 1 -i 8 -a 1 -x {2.0 5.0 8 ------- null}
- -t 0.054 -s 3 -d 4 -p cbr -e 500 -c 1 -i 8 -a 1 -x {2.0 5.0 8 ------- null}
h -t 0.054 -s 3 -d 4 -p cbr -e 500 -c 1 -i 8 -a 1 -x {2.0 5.0 -1 ------- null}
+ -t 0.055 -s 2 -d 3 -p cbr -e 500 -c 1 -i 11 -a 1 -x {2.0 5.0 11 ------- null}
- -t 0.055 -s 2 -d 3 -p cbr -e 500 -c 1 -i 11 -a 1 -x {2.0 5.0 11 ------- null}
h -t 0.055 -s 2 -d 3 -p cbr -e 500 -c 1 -i 11 -a 1 -x {2.0 5.0 -1 ------- null}
r -t 0.057 -s 4 -d 5 -p cbr -e 500 -c 1 -i 3 -a 1 -x {2.0 5.0 3 ------- null}
r -t 0.058 -s 3 -d 4 -p cbr -e 500 -c 1 -i 6 -a 1 -x {2.0 5.0 6 ------- null}
+ -t 0.058 -s 4 -d 5 -p cbr -e 500 -c 1 -i 6 -a 1 -x {2.0 5.0 6 ------- null}
- -t 0.058 -s 4 -d 5 -p cbr -e 500 -c 1 -i 6 -a 1 -x {2.0 5.0 6 ------- null}
h -t 0.058 -s 4 -d 5 -p cbr -e 500 -c 1 -i 6 -a 1 -x {2.0 5.0 -1 ------- null}
r -t 0.059 -s 2 -d 3 -p cbr -e 500 -c 1 -i 9 -a 1 -x {2.0 5.0 9 ------- null}
+ -t 0.059 -s 3 -d 4 -p cbr -e 500 -c 1 -i 9 -a 1 -x {2.0 5.0 9 ------- null}
- -t 0.059 -s 3 -d 4 -p cbr -e 500 -c 1 -i 9 -a 1 -x {2.0 5.0 9 ------- null}
h -t 0.059 -s 3 -d 4 -p cbr -e 500 -c 1 -i 9 -a 1 -x {2.0 5.0 -1 ------- null}
+ -t 0.06 -s 2 -d 3 -p cbr -e 500 -c 1 -i 12 -a 1 -x {2.0 5.0 12 ------- null}
- -t 0.06 -s 2 -d 3 -p cbr -e 500 -c 1 -i 12 -a 1 -x {2.0 5.0 12 ------- null}
h -t 0.06 -s 2 -d 3 -p cbr -e 500 -c 1 -i 12 -a 1 -x {2.0 5.0 -1 ------- null}
r -t 0.062 -s 4 -d 5 -p cbr -e 500 -c 1 -i 4 -a 1 -x {2.0 5.0 4 ------- null}
r -t 0.063 -s 3 -d 4 -p cbr -e 500 -c 1 -i 7 -a 1 -x {2.0 5.0 7 ------- null}
+ -t 0.063 -s 4 -d 5 -p cbr -e 500 -c 1 -i 7 -a 1 -x {2.0 5.0 7 ------- null}
- -t 0.063 -s 4 -d 5 -p cbr -e 500 -c 1 -i 7 -a 1 -x {2.0 5.0 7 ------- null}
h -t 0.063 -s 4 -d 5 -p cbr -e 500 -c 1 -i 7 -a 1 -x {2.0 5.0 -1 ------- null}
r -t 0.064 -s 2 -d 3 -p cbr -e 500 -c 1 -i 10 -a 1 -x {2.0 5.0 10 ------- null}
+ -t 0.064 -s 3 -d 4 -p cbr -e 500 -c 1 -i 10 -a 1 -x {2.0 5.0 10 ------- null}
- -t 0.064 -s 3 -d 4 -p cbr -e 500 -c 1 -i 10 -a 1 -x {2.0 5.0 10 ------- null}
h -t 0.064 -s 3 -d 4 -p cbr -e 500 -c 1 -i 10 -a 1 -x {2.0 5.0 -1 ------- null}
+ -t 0.065 -s 2 -d 3 -p cbr -e 500 -c 1 -i 13 -a 1 -x {2.0 5.0 13 ------- null}
- -t 0.065 -s 2 -d 3 -p cbr -e 500 -c 1 -i 13 -a 1 -x {2.0 5.0 13 ------- null}
h -t 0.065 -s 2 -d 3 -p cbr -e 500 -c 1 -i 13 -a 1 -x {2.0 5.0 -1 ------- null}
r -t 0.067 -s 4 -d 5 -p cbr -e 500 -c 1 -i 5 -a 1 -x {2.0 5.0 5 ------- null}
r -t 0.068 -s 3 -d 4 -p cbr -e 500 -c 1 -i 8 -a 1 -x {2.0 5.0 8 ------- null}
+ -t 0.068 -s 4 -d 5 -p cbr -e 500 -c 1 -i 8 -a 1 -x {2.0 5.0 8 ------- null}
- -t 0.068 -s 4 -d 5 -p cbr -e 500 -c 1 -i 8 -a 1 -x {2.0 5.0 8 ------- null}
h -t 0.068 -s 4 -d 5 -p cbr -e 500 -c 1 -i 8 -a 1 -x {2.0 5.0 -1 ------- null}
r -t 0.069 -s 2 -d 3 -p cbr -e 500 -c 1 -i 11 -a 1 -x {2.0 5.0 11 ------- null}
+ -t 0.069 -s 3 -d 4 -p cbr -e 500 -c 1 -i 11 -a 1 -x {2.0 5.0 11 ------- null}
- -t 0.069 -s 3 -d 4 -p cbr -e 500 -c 1 -i 11 -a 1 -x {2.0 5.0 11 ------- null}
h -t 0.069 -s 3 -d 4 -p cbr -e 500 -c 1 -i 11 -a 1 -x {2.0 5.0 -1 ------- null}
+ -t 0.07 -s 2 -d 3 -p cbr -e 500 -c 1 -i 14 -a 1 -x {2.0 5.0 14 ------- null}
- -t 0.07 -s 2 -d 3 -p cbr -e 500 -c 1 -i 14 -a 1 -x {2.0 5.0 14 ------- null}
h -t 0.07 -s 2 -d 3 -p cbr -e 500 -c 1 -i 14 -a 1 -x {2.0 5.0 -1 ------- null}
r -t 0.072 -s 4 -d 5 -p cbr -e 500 -c 1 -i 6 -a 1 -x {2.0 5.0 6 ------- null}
r -t 0.073 -s 3 -d 4 -p cbr -e 500 -c 1 -i 9 -a 1 -x {2.0 5.0 9 ------- null}
+ -t 0.073 -s 4 -d 5 -p cbr -e 500 -c 1 -i 9 -a 1 -x {2.0 5.0 9 ------- null}
- -t 0.073 -s 4 -d 5 -p cbr -e 500 -c 1 -i 9 -a 1 -x {2.0 5.0 9 ------- null}
h -t 0.073 -s 4 -d 5 -p cbr -e 500 -c 1 -i 9 -a 1 -x {2.0 5.0 -1 ------- null}
r -t 0.074 -s 2 -d 3 -p cbr -e 500 -c 1 -i 12 -a 1 -x {2.0 5.0 12 ------- null}
+ -t 0.074 -s 3 -d 4 -p cbr -e 500 -c 1 -i 12 -a 1 -x {2.0 5.0 12 ------- null}
- -t 0.074 -s 3 -d 4 -p cbr -e 500 -c 1 -i 12 -a 1 -x {2.0 5.0 12 ------- null}
h -t 0.074 -s 3 -d 4 -p cbr -e 500 -c 1 -i 12 -a 1 -x {2.0 5.0 -1 ------- null}
+ -t 0.075 -s 2 -d 3 -p cbr -e 500 -c 1 -i 15 -a 1 -x {2.0 5.0 15 ------- null}
- -t 0.075 -s 2 -d 3 -p cbr -e 500 -c 1 -i 15 -a 1 -x {2.0 5.0 15 ------- null}
h -t 0.075 -s 2 -d 3 -p cbr -e 500 -c 1 -i 15 -a 1 -x {2.0 5.0 -1 ------- null}
r -t 0.077 -s 4 -d 5 -p cbr -e 500 -c 1 -i 7 -a 1 -x {2.0 5.0 7 ------- null}
r -t 0.078 -s 3 -d 4 -p cbr -e 500 -c 1 -i 10 -a 1 -x {2.0 5.0 10 ------- null}
+ -t 0.078 -s 4 -d 5 -p cbr -e 500 -c 1 -i 10 -a 1 -x {2.0 5.0 10 ------- null}
- -t 0.078 -s 4 -d 5 -p cbr -e 500 -c 1 -i 10 -a 1 -x {2.0 5.0 10 ------- null}
h -t 0.078 -s 4 -d 5 -p cbr -e 500 -c 1 -i 10 -a 1 -x {2.0 5.0 -1 ------- null}
r -t 0.079 -s 2 -d 3 -p cbr -e 500 -c 1 -i 13 -a 1 -x {2.0 5.0 13 ------- null}
+ -t 0.079 -s 3 -d 4 -p cbr -e 500 -c 1 -i 13 -a 1 -x {2.0 5.0 13 ------- null}
- -t 0.079 -s 3 -d 4 -p cbr -e 500 -c 1 -i 13 -a 1 -x {2.0 5.0 13 ------- null}
h -t 0.079 -s 3 -d 4 -p cbr -e 500 -c 1 -i 13 -a 1 -x {2.0 5.0 -1 ------- null}
+ -t 0.08 -s 2 -d 3 -p cbr -e 500 -c 1 -i 16 -a 1 -x {2.0 5.0 16 ------- null}
- -t 0.08 -s 2 -d 3 -p cbr -e 500 -c 1 -i 16 -a 1 -x {2.0 5.0 16 ------- null}
h -t 0.08 -s 2 -d 3 -p cbr -e 500 -c 1 -i 16 -a 1 -x {2.0 5.0 -1 ------- null}
r -t 0.082 -s 4 -d 5 -p cbr -e 500 -c 1 -i 8 -a 1 -x {2.0 5.0 8 ------- null}
r -t 0.083 -s 3 -d 4 -p cbr -e 500 -c 1 -i 11 -a 1 -x {2.0 5.0 11 ------- null}
+ -t 0.083 -s 4 -d 5 -p cbr -e 500 -c 1 -i 11 -a 1 -x {2.0 5.0 11 ------- null}
- -t 0.083 -s 4 -d 5 -p cbr -e 500 -c 1 -i 11 -a 1 -x {2.0 5.0 11 ------- null}
h -t 0.083 -s 4 -d 5 -p cbr -e 500 -c 1 -i 11 -a 1 -x {2.0 5.0 -1 ------- null}
r -t 0.084 -s 2 -d 3 -p cbr -e 500 -c 1 -i 14 -a 1 -x {2.0 5.0 14 ------- null}
+ -t 0.084 -s 3 -d 4 -p cbr -e 500 -c 1 -i 14 -a 1 -x {2.0 5.0 14 ------- null}
- -t 0.084 -s 3 -d 4 -p cbr -e 500 -c 1 -i 14 -a 1 -x {2.0 5.0 14 ------- null}
h -t 0.084 -s 3 -d 4 -p cbr -e 500 -c 1 -i 14 -a 1 -x {2.0 5.0 -1 ------- null}
+ -t 0.085 -s 2 -d 3 -p cbr -e 500 -c 1 -i 17 -a 1 -x {2.0 5.0 17 ------- null}
- -t 0.085 -s 2 -d 3 -p cbr -e 500 -c 1 -i 17 -a 1 -x {2.0 5.0 17 ------- null}
h -t 0.085 -s 2 -d 3 -p cbr -e 500 -c 1 -i 17 -a 1 -x {2.0 5.0 -1 ------- null}
r -t 0.087 -s 4 -d 5 -p cbr -e 500 -c 1 -i 9 -a 1 -x {2.0 5.0 9 ------- null}
r -t 0.088 -s 3 -d 4 -p cbr -e 500 -c 1 -i 12 -a 1 -x {2.0 5.0 12 ------- null}
+ -t 0.088 -s 4 -d 5 -p cbr -e 500 -c 1 -i 12 -a 1 -x {2.0 5.0 12 ------- null}
- -t 0.088 -s 4 -d 5 -p cbr -e 500 -c 1 -i 12 -a 1 -x {2.0 5.0 12 ------- null}
h -t 0.088 -s 4 -d 5 -p cbr -e 500 -c 1 -i 12 -a 1 -x {2.0 5.0 -1 ------- null}
r -t 0.089 -s 2 -d 3 -p cbr -e 500 -c 1 -i 15 -a 1 -x {2.0 5.0 15 ------- null}
+ -t 0.089 -s 3 -d 4 -p cbr -e 500 -c 1 -i 15 -a 1 -x {2.0 5.0 15 ------- null}
- -t 0.089 -s 3 -d 4 -p cbr -e 500 -c 1 -i 15 -a 1 -x {2.0 5.0 15 ------- null}
h -t 0.089 -s 3 -d 4 -p cbr -e 500 -c 1 -i 15 -a 1 -x {2.0 5.0 -1 ------- null}
+ -t 0.09 -s 2 -d 3 -p cbr -e 500 -c 1 -i 18 -a 1 -x {2.0 5.0 18 ------- null}
- -t 0.09 -s 2 -d 3 -p cbr -e 500 -c 1 -i 18 -a 1 -x {2.0 5.0 18 ------- null}
h -t 0.09 -s 2 -d 3 -p cbr -e 500 -c 1 -i 18 -a 1 -x {2.0 5.0 -1 ------- null}
r -t 0.092 -s 4 -d 5 -p cbr -e 500 -c 1 -i 10 -a 1 -x {2.0 5.0 10 ------- null}
r -t 0.093 -s 3 -d 4 -p cbr -e 500 -c 1 -i 13 -a 1 -x {2.0 5.0 13 ------- null}
+ -t 0.093 -s 4 -d 5 -p cbr -e 500 -c 1 -i 13 -a 1 -x {2.0 5.0 13 ------- null}
- -t 0.093 -s 4 -d 5 -p cbr -e 500 -c 1 -i 13 -a 1 -x {2.0 5.0 13 ------- null}
h -t 0.093 -s 4 -d 5 -p cbr -e 500 -c 1 -i 13 -a 1 -x {2.0 5.0 -1 ------- null}
r -t 0.094 -s 2 -d 3 -p cbr -e 500 -c 1 -i 16 -a 1 -x {2.0 5.0 16 ------- null}
+ -t 0.094 -s 3 -d 4 -p cbr -e 500 -c 1 -i 16 -a 1 -x {2.0 5.0 16 ------- null}
- -t 0.094 -s 3 -d 4 -p cbr -e 500 -c 1 -i 16 -a 1 -x {2.0 5.0 16 ------- null}
h -t 0.094 -s 3 -d 4 -p cbr -e 500 -c 1 -i 16 -a 1 -x {2.0 5.0 -1 ------- null}
+ -t 0.095 -s 2 -d 3 -p cbr -e 500 -c 1 -i 19 -a 1 -x {2.0 5.0 19 ------- null}
- -t 0.095 -s 2 -d 3 -p cbr -e 500 -c 1 -i 19 -a 1 -x {2.0 5.0 19 ------- null}
h -t 0.095 -s 2 -d 3 -p cbr -e 500 -c 1 -i 19 -a 1 -x {2.0 5.0 -1 ------- null}
r -t 0.097 -s 4 -d 5 -p cbr -e 500 -c 1 -i 11 -a 1 -x {2.0 5.0 11 ------- null}
r -t 0.098 -s 3 -d 4 -p cbr -e 500 -c 1 -i 14 -a 1 -x {2.0 5.0 14 ------- null}
+ -t 0.098 -s 4 -d 5 -p cbr -e 500 -c 1 -i 14 -a 1 -x {2.0 5.0 14 ------- null}
- -t 0.098 -s 4 -d 5 -p cbr -e 500 -c 1 -i 14 -a 1 -x {2.0 5.0 14 ------- null}
h -t 0.098 -s 4 -d 5 -p cbr -e 500 -c 1 -i 14 -a 1 -x {2.0 5.0 -1 ------- null}
r -t 0.099 -s 2 -d 3 -p cbr -e 500 -c 1 -i 17 -a 1 -x {2.0 5.0 17 ------- null}
+ -t 0.099 -s 3 -d 4 -p cbr -e 500 -c 1 -i 17 -a 1 -x {2.0 5.0 17 ------- null}
- -t 0.099 -s 3 -d 4 -p cbr -e 500 -c 1 -i 17 -a 1 -x {2.0 5.0 17 ------- null}
h -t 0.099 -s 3 -d 4 -p cbr -e 500 -c 1 -i 17 -a 1 -x {2.0 5.0 -1 ------- null}
+ -t 0.1 -s 1 -d 3 -p cbr -e 500 -c 2 -i 20 -a 2 -x {1.0 6.0 0 ------- null}
- -t 0.1 -s 1 -d 3 -p cbr -e 500 -c 2 -i 20 -a 2 -x {1.0 6.0 0 ------- null}
h -t 0.1 -s 1 -d 3 -p cbr -e 500 -c 2 -i 20 -a 2 -x {1.0 6.0 -1 ------- null}
+ -t 0.1 -s 2 -d 3 -p cbr -e 500 -c 1 -i 21 -a 1 -x {2.0 5.0 20 ------- null}
- -t 0.1 -s 2 -d 3 -p cbr -e 500 -c 1 -i 21 -a 1 -x {2.0 5.0 20 ------- null}
h -t 0.1 -s 2 -d 3 -p cbr -e 500 -c 1 -i 21 -a 1 -x {2.0 5.0 -1 ------- null}
r -t 0.102 -s 4 -d 5 -p cbr -e 500 -c 1 -i 12 -a 1 -x {2.0 5.0 12 ------- null}
r -t 0.103 -s 3 -d 4 -p cbr -e 500 -c 1 -i 15 -a 1 -x {2.0 5.0 15 ------- null}
+ -t 0.103 -s 4 -d 5 -p cbr -e 500 -c 1 -i 15 -a 1 -x {2.0 5.0 15 ------- null}
- -t 0.103 -s 4 -d 5 -p cbr -e 500 -c 1 -i 15 -a 1 -x {2.0 5.0 15 ------- null}
h -t 0.103 -s 4 -d 5 -p cbr -e 500 -c 1 -i 15 -a 1 -x {2.0 5.0 -1 ------- null}
r -t 0.104 -s 2 -d 3 -p cbr -e 500 -c 1 -i 18 -a 1 -x {2.0 5.0 18 ------- null}
+ -t 0.104 -s 3 -d 4 -p cbr -e 500 -c 1 -i 18 -a 1 -x {2.0 5.0 18 ------- null}
- -t 0.104 -s 3 -d 4 -p cbr -e 500 -c 1 -i 18 -a 1 -x {2.0 5.0 18 ------- null}
h -t 0.104 -s 3 -d 4 -p cbr -e 500 -c 1 -i 18 -a 1 -x {2.0 5.0 -1 ------- null}
+ -t 0.105 -s 1 -d 3 -p cbr -e 500 -c 2 -i 22 -a 2 -x {1.0 6.0 1 ------- null}
- -t 0.105 -s 1 -d 3 -p cbr -e 500 -c 2 -i 22 -a 2 -x {1.0 6.0 1 ------- null}
h -t 0.105 -s 1 -d 3 -p cbr -e 500 -c 2 -i 22 -a 2 -x {1.0 6.0 -1 ------- null}
+ -t 0.105 -s 2 -d 3 -p cbr -e 500 -c 1 -i 23 -a 1 -x {2.0 5.0 21 ------- null}
- -t 0.105 -s 2 -d 3 -p cbr -e 500 -c 1 -i 23 -a 1 -x {2.0 5.0 21 ------- null}
h -t 0.105 -s 2 -d 3 -p cbr -e 500 -c 1 -i 23 -a 1 -x {2.0 5.0 -1 ------- null}
r -t 0.107 -s 4 -d 5 -p cbr -e 500 -c 1 -i 13 -a 1 -x {2.0 5.0 13 ------- null}
r -t 0.108 -s 3 -d 4 -p cbr -e 500 -c 1 -i 16 -a 1 -x {2.0 5.0 16 ------- null}
+ -t 0.108 -s 4 -d 5 -p cbr -e 500 -c 1 -i 16 -a 1 -x {2.0 5.0 16 ------- null}
- -t 0.108 -s 4 -d 5 -p cbr -e 500 -c 1 -i 16 -a 1 -x {2.0 5.0 16 ------- null}
h -t 0.108 -s 4 -d 5 -p cbr -e 500 -c 1 -i 16 -a 1 -x {2.0 5.0 -1 ------- null}
r -t 0.109 -s 2 -d 3 -p cbr -e 500 -c 1 -i 19 -a 1 -x {2.0 5.0 19 ------- null}
+ -t 0.109 -s 3 -d 4 -p cbr -e 500 -c 1 -i 19 -a 1 -x {2.0 5.0 19 ------- null}
- -t 0.109 -s 3 -d 4 -p cbr -e 500 -c 1 -i 19 -a 1 -x {2.0 5.0 19 ------- null}
h -t 0.109 -s 3 -d 4 -p cbr -e 500 -c 1 -i 19 -a 1 -x {2.0 5.0 -1 ------- null}
+ -t 0.11 -s 1 -d 3 -p cbr -e 500 -c 2 -i 24 -a 2 -x {1.0 6.0 2 ------- null}
- -t 0.11 -s 1 -d 3 -p cbr -e 500 -c 2 -i 24 -a 2 -x {1.0 6.0 2 ------- null}
h -t 0.11 -s 1 -d 3 -p cbr -e 500 -c 2 -i 24 -a 2 -x {1.0 6.0 -1 ------- null}
+ -t 0.11 -s 2 -d 3 -p cbr -e 500 -c 1 -i 25 -a 1 -x {2.0 5.0 22 ------- null}
- -t 0.11 -s 2 -d 3 -p cbr -e 500 -c 1 -i 25 -a 1 -x {2.0 5.0 22 ------- null}
h -t 0.11 -s 2 -d 3 -p cbr -e 500 -c 1 -i 25 -a 1 -x {2.0 5.0 -1 ------- null}
r -t 0.112 -s 4 -d 5 -p cbr -e 500 -c 1 -i 14 -a 1 -x {2.0 5.0 14 ------- null}
r -t 0.113 -s 3 -d 4 -p cbr -e 500 -c 1 -i 17 -a 1 -x {2.0 5.0 17 ------- null}
+ -t 0.113 -s 4 -d 5 -p cbr -e 500 -c 1 -i 17 -a 1 -x {2.0 5.0 17 ------- null}
- -t 0.113 -s 4 -d 5 -p cbr -e 500 -c 1 -i 17 -a 1 -x {2.0 5.0 17 ------- null}
h -t 0.113 -s 4 -d 5 -p cbr -e 500 -c 1 -i 17 -a 1 -x {2.0 5.0 -1 ------- null}
r -t 0.114 -s 1 -d 3 -p cbr -e 500 -c 2 -i 20 -a 2 -x {1.0 6.0 0 ------- null}
+ -t 0.114 -s 3 -d 4 -p cbr -e 500 -c 2 -i 20 -a 2 -x {1.0 6.0 0 ------- null}
- -t 0.114 -s 3 -d 4 -p cbr -e 500 -c 2 -i 20 -a 2 -x {1.0 6.0 0 ------- null}
h -t 0.114 -s 3 -d 4 -p cbr -e 500 -c 2 -i 20 -a 2 -x {1.0 6.0 -1 ------- null}
r -t 0.114 -s 2 -d 3 -p cbr -e 500 -c 1 -i 21 -a 1 -x {2.0 5.0 20 ------- null}
+ -t 0.114 -s 3 -d 4 -p cbr -e 500 -c 1 -i 21 -a 1 -x {2.0 5.0 20 ------- null}
+ -t 0.115 -s 1 -d 3 -p cbr -e 500 -c 2 -i 26 -a 2 -x {1.0 6.0 3 ------- null}
- -t 0.115 -s 1 -d 3 -p cbr -e 500 -c 2 -i 26 -a 2 -x {1.0 6.0 3 ------- null}
h -t 0.115 -s 1 -d 3 -p cbr -e 500 -c 2 -i 26 -a 2 -x {1.0 6.0 -1 ------- null}
+ -t 0.115 -s 2 -d 3 -p cbr -e 500 -c 1 -i 27 -a 1 -x {2.0 5.0 23 ------- null}
- -t 0.115 -s 2 -d 3 -p cbr -e 500 -c 1 -i 27 -a 1 -x {2.0 5.0 23 ------- null}
h -t 0.115 -s 2 -d 3 -p cbr -e 500 -c 1 -i 27 -a 1 -x {2.0 5.0 -1 ------- null}
r -t 0.117 -s 4 -d 5 -p cbr -e 500 -c 1 -i 15 -a 1 -x {2.0 5.0 15 ------- null}
r -t 0.118 -s 3 -d 4 -p cbr -e 500 -c 1 -i 18 -a 1 -x {2.0 5.0 18 ------- null}
+ -t 0.118 -s 4 -d 5 -p cbr -e 500 -c 1 -i 18 -a 1 -x {2.0 5.0 18 ------- null}
- -t 0.118 -s 4 -d 5 -p cbr -e 500 -c 1 -i 18 -a 1 -x {2.0 5.0 18 ------- null}
h -t 0.118 -s 4 -d 5 -p cbr -e 500 -c 1 -i 18 -a 1 -x {2.0 5.0 -1 ------- null}
- -t 0.118 -s 3 -d 4 -p cbr -e 500 -c 1 -i 21 -a 1 -x {2.0 5.0 20 ------- null}
h -t 0.118 -s 3 -d 4 -p cbr -e 500 -c 1 -i 21 -a 1 -x {2.0 5.0 -1 ------- null}
r -t 0.119 -s 1 -d 3 -p cbr -e 500 -c 2 -i 22 -a 2 -x {1.0 6.0 1 ------- null}
+ -t 0.119 -s 3 -d 4 -p cbr -e 500 -c 2 -i 22 -a 2 -x {1.0 6.0 1 ------- null}
r -t 0.119 -s 2 -d 3 -p cbr -e 500 -c 1 -i 23 -a 1 -x {2.0 5.0 21 ------- null}
+ -t 0.119 -s 3 -d 4 -p cbr -e 500 -c 1 -i 23 -a 1 -x {2.0 5.0 21 ------- null}
+ -t 0.12 -s 1 -d 3 -p cbr -e 500 -c 2 -i 28 -a 2 -x {1.0 6.0 4 ------- null}
- -t 0.12 -s 1 -d 3 -p cbr -e 500 -c 2 -i 28 -a 2 -x {1.0 6.0 4 ------- null}
h -t 0.12 -s 1 -d 3 -p cbr -e 500 -c 2 -i 28 -a 2 -x {1.0 6.0 -1 ------- null}
+ -t 0.12 -s 2 -d 3 -p cbr -e 500 -c 1 -i 29 -a 1 -x {2.0 5.0 24 ------- null}
- -t 0.12 -s 2 -d 3 -p cbr -e 500 -c 1 -i 29 -a 1 -x {2.0 5.0 24 ------- null}
h -t 0.12 -s 2 -d 3 -p cbr -e 500 -c 1 -i 29 -a 1 -x {2.0 5.0 -1 ------- null}
r -t 0.122 -s 4 -d 5 -p cbr -e 500 -c 1 -i 16 -a 1 -x {2.0 5.0 16 ------- null}
- -t 0.122 -s 3 -d 4 -p cbr -e 500 -c 2 -i 22 -a 2 -x {1.0 6.0 1 ------- null}
h -t 0.122 -s 3 -d 4 -p cbr -e 500 -c 2 -i 22 -a 2 -x {1.0 6.0 -1 ------- null}
r -t 0.123 -s 3 -d 4 -p cbr -e 500 -c 1 -i 19 -a 1 -x {2.0 5.0 19 ------- null}
+ -t 0.123 -s 4 -d 5 -p cbr -e 500 -c 1 -i 19 -a 1 -x {2.0 5.0 19 ------- null}
- -t 0.123 -s 4 -d 5 -p cbr -e 500 -c 1 -i 19 -a 1 -x {2.0 5.0 19 ------- null}
h -t 0.123 -s 4 -d 5 -p cbr -e 500 -c 1 -i 19 -a 1 -x {2.0 5.0 -1 ------- null}
r -t 0.124 -s 1 -d 3 -p cbr -e 500 -c 2 -i 24 -a 2 -x {1.0 6.0 2 ------- null}
+ -t 0.124 -s 3 -d 4 -p cbr -e 500 -c 2 -i 24 -a 2 -x {1.0 6.0 2 ------- null}
r -t 0.124 -s 2 -d 3 -p cbr -e 500 -c 1 -i 25 -a 1 -x {2.0 5.0 22 ------- null}
+ -t 0.124 -s 3 -d 4 -p cbr -e 500 -c 1 -i 25 -a 1 -x {2.0 5.0 22 ------- null}
+ -t 0.125 -s 1 -d 3 -p cbr -e 500 -c 2 -i 30 -a 2 -x {1.0 6.0 5 ------- null}
- -t 0.125 -s 1 -d 3 -p cbr -e 500 -c 2 -i 30 -a 2 -x {1.0 6.0 5 ------- null}
h -t 0.125 -s 1 -d 3 -p cbr -e 500 -c 2 -i 30 -a 2 -x {1.0 6.0 -1 ------- null}
+ -t 0.125 -s 2 -d 3 -p cbr -e 500 -c 1 -i 31 -a 1 -x {2.0 5.0 25 ------- null}
- -t 0.125 -s 2 -d 3 -p cbr -e 500 -c 1 -i 31 -a 1 -x {2.0 5.0 25 ------- null}
h -t 0.125 -s 2 -d 3 -p cbr -e 500 -c 1 -i 31 -a 1 -x {2.0 5.0 -1 ------- null}
- -t 0.126 -s 3 -d 4 -p cbr -e 500 -c 1 -i 23 -a 1 -x {2.0 5.0 21 ------- null}
h -t 0.126 -s 3 -d 4 -p cbr -e 500 -c 1 -i 23 -a 1 -x {2.0 5.0 -1 ------- null}
r -t 0.127 -s 4 -d 5 -p cbr -e 500 -c 1 -i 17 -a 1 -x {2.0 5.0 17 ------- null}
r -t 0.128 -s 3 -d 4 -p cbr -e 500 -c 2 -i 20 -a 2 -x {1.0 6.0 0 ------- null}
+ -t 0.128 -s 4 -d 6 -p cbr -e 500 -c 2 -i 20 -a 2 -x {1.0 6.0 0 ------- null}
- -t 0.128 -s 4 -d 6 -p cbr -e 500 -c 2 -i 20 -a 2 -x {1.0 6.0 0 ------- null}
h -t 0.128 -s 4 -d 6 -p cbr -e 500 -c 2 -i 20 -a 2 -x {1.0 6.0 -1 ------- null}
r -t 0.129 -s 1 -d 3 -p cbr -e 500 -c 2 -i 26 -a 2 -x {1.0 6.0 3 ------- null}
+ -t 0.129 -s 3 -d 4 -p cbr -e 500 -c 2 -i 26 -a 2 -x {1.0 6.0 3 ------- null}
r -t 0.129 -s 2 -d 3 -p cbr -e 500 -c 1 -i 27 -a 1 -x {2.0 5.0 23 ------- null}
+ -t 0.129 -s 3 -d 4 -p cbr -e 500 -c 1 -i 27 -a 1 -x {2.0 5.0 23 ------- null}
- -t 0.13 -s 3 -d 4 -p cbr -e 500 -c 2 -i 24 -a 2 -x {1.0 6.0 2 ------- null}
h -t 0.13 -s 3 -d 4 -p cbr -e 500 -c 2 -i 24 -a 2 -x {1.0 6.0 -1 ------- null}
+ -t 0.13 -s 1 -d 3 -p cbr -e 500 -c 2 -i 32 -a 2 -x {1.0 6.0 6 ------- null}
- -t 0.13 -s 1 -d 3 -p cbr -e 500 -c 2 -i 32 -a 2 -x {1.0 6.0 6 ------- null}
h -t 0.13 -s 1 -d 3 -p cbr -e 500 -c 2 -i 32 -a 2 -x {1.0 6.0 -1 ------- null}
+ -t 0.13 -s 2 -d 3 -p cbr -e 500 -c 1 -i 33 -a 1 -x {2.0 5.0 26 ------- null}
- -t 0.13 -s 2 -d 3 -p cbr -e 500 -c 1 -i 33 -a 1 -x {2.0 5.0 26 ------- null}
h -t 0.13 -s 2 -d 3 -p cbr -e 500 -c 1 -i 33 -a 1 -x {2.0 5.0 -1 ------- null}
r -t 0.132 -s 4 -d 5 -p cbr -e 500 -c 1 -i 18 -a 1 -x {2.0 5.0 18 ------- null}
r -t 0.132 -s 3 -d 4 -p cbr -e 500 -c 1 -i 21 -a 1 -x {2.0 5.0 20 ------- null}
+ -t 0.132 -s 4 -d 5 -p cbr -e 500 -c 1 -i 21 -a 1 -x {2.0 5.0 20 ------- null}
- -t 0.132 -s 4 -d 5 -p cbr -e 500 -c 1 -i 21 -a 1 -x {2.0 5.0 20 ------- null}
h -t 0.132 -s 4 -d 5 -p cbr -e 500 -c 1 -i 21 -a 1 -x {2.0 5.0 -1 ------- null}
- -t 0.134 -s 3 -d 4 -p cbr -e 500 -c 1 -i 25 -a 1 -x {2.0 5.0 22 ------- null}
h -t 0.134 -s 3 -d 4 -p cbr -e 500 -c 1 -i 25 -a 1 -x {2.0 5.0 -1 ------- null}
r -t 0.134 -s 1 -d 3 -p cbr -e 500 -c 2 -i 28 -a 2 -x {1.0 6.0 4 ------- null}
+ -t 0.134 -s 3 -d 4 -p cbr -e 500 -c 2 -i 28 -a 2 -x {1.0 6.0 4 ------- null}
r -t 0.134 -s 2 -d 3 -p cbr -e 500 -c 1 -i 29 -a 1 -x {2.0 5.0 24 ------- null}
+ -t 0.134 -s 3 -d 4 -p cbr -e 500 -c 1 -i 29 -a 1 -x {2.0 5.0 24 ------- null}
+ -t 0.135 -s 1 -d 3 -p cbr -e 500 -c 2 -i 34 -a 2 -x {1.0 6.0 7 ------- null}
- -t 0.135 -s 1 -d 3 -p cbr -e 500 -c 2 -i 34 -a 2 -x {1.0 6.0 7 ------- null}
h -t 0.135 -s 1 -d 3 -p cbr -e 500 -c 2 -i 34 -a 2 -x {1.0 6.0 -1 ------- null}
+ -t 0.135 -s 2 -d 3 -p cbr -e 500 -c 1 -i 35 -a 1 -x {2.0 5.0 27 ------- null}
- -t 0.135 -s 2 -d 3 -p cbr -e 500 -c 1 -i 35 -a 1 -x {2.0 5.0 27 ------- null}
h -t 0.135 -s 2 -d 3 -p cbr -e 500 -c 1 -i 35 -a 1 -x {2.0 5.0 -1 ------- null}
r -t 0.136 -s 3 -d 4 -p cbr -e 500 -c 2 -i 22 -a 2 -x {1.0 6.0 1 ------- null}
+ -t 0.136 -s 4 -d 6 -p cbr -e 500 -c 2 -i 22 -a 2 -x {1.0 6.0 1 ------- null}
- -t 0.136 -s 4 -d 6 -p cbr -e 500 -c 2 -i 22 -a 2 -x {1.0 6.0 1 ------- null}
h -t 0.136 -s 4 -d 6 -p cbr -e 500 -c 2 -i 22 -a 2 -x {1.0 6.0 -1 ------- null}
r -t 0.137 -s 4 -d 5 -p cbr -e 500 -c 1 -i 19 -a 1 -x {2.0 5.0 19 ------- null}
- -t 0.138 -s 3 -d 4 -p cbr -e 500 -c 2 -i 26 -a 2 -x {1.0 6.0 3 ------- null}
h -t 0.138 -s 3 -d 4 -p cbr -e 500 -c 2 -i 26 -a 2 -x {1.0 6.0 -1 ------- null}
r -t 0.139 -s 1 -d 3 -p cbr -e 500 -c 2 -i 30 -a 2 -x {1.0 6.0 5 ------- null}
+ -t 0.139 -s 3 -d 4 -p cbr -e 500 -c 2 -i 30 -a 2 -x {1.0 6.0 5 ------- null}
r -t 0.139 -s 2 -d 3 -p cbr -e 500 -c 1 -i 31 -a 1 -x {2.0 5.0 25 ------- null}
+ -t 0.139 -s 3 -d 4 -p cbr -e 500 -c 1 -i 31 -a 1 -x {2.0 5.0 25 ------- null}
r -t 0.14 -s 3 -d 4 -p cbr -e 500 -c 1 -i 23 -a 1 -x {2.0 5.0 21 ------- null}
+ -t 0.14 -s 4 -d 5 -p cbr -e 500 -c 1 -i 23 -a 1 -x {2.0 5.0 21 ------- null}
- -t 0.14 -s 4 -d 5 -p cbr -e 500 -c 1 -i 23 -a 1 -x {2.0 5.0 21 ------- null}
h -t 0.14 -s 4 -d 5 -p cbr -e 500 -c 1 -i 23 -a 1 -x {2.0 5.0 -1 ------- null}
+ -t 0.14 -s 1 -d 3 -p cbr -e 500 -c 2 -i 36 -a 2 -x {1.0 6.0 8 ------- null}
- -t 0.14 -s 1 -d 3 -p cbr -e 500 -c 2 -i 36 -a 2 -x {1.0 6.0 8 ------- null}
h -t 0.14 -s 1 -d 3 -p cbr -e 500 -c 2 -i 36 -a 2 -x {1.0 6.0 -1 ------- null}
+ -t 0.14 -s 2 -d 3 -p cbr -e 500 -c 1 -i 37 -a 1 -x {2.0 5.0 28 ------- null}
- -t 0.14 -s 2 -d 3 -p cbr -e 500 -c 1 -i 37 -a 1 -x {2.0 5.0 28 ------- null}
h -t 0.14 -s 2 -d 3 -p cbr -e 500 -c 1 -i 37 -a 1 -x {2.0 5.0 -1 ------- null}
r -t 0.142 -s 4 -d 6 -p cbr -e 500 -c 2 -i 20 -a 2 -x {1.0 6.0 0 ------- null}
- -t 0.142 -s 3 -d 4 -p cbr -e 500 -c 1 -i 27 -a 1 -x {2.0 5.0 23 ------- null}
h -t 0.142 -s 3 -d 4 -p cbr -e 500 -c 1 -i 27 -a 1 -x {2.0 5.0 -1 ------- null}
r -t 0.144 -s 3 -d 4 -p cbr -e 500 -c 2 -i 24 -a 2 -x {1.0 6.0 2 ------- null}
+ -t 0.144 -s 4 -d 6 -p cbr -e 500 -c 2 -i 24 -a 2 -x {1.0 6.0 2 ------- null}
- -t 0.144 -s 4 -d 6 -p cbr -e 500 -c 2 -i 24 -a 2 -x {1.0 6.0 2 ------- null}
h -t 0.144 -s 4 -d 6 -p cbr -e 500 -c 2 -i 24 -a 2 -x {1.0 6.0 -1 ------- null}
r -t 0.144 -s 1 -d 3 -p cbr -e 500 -c 2 -i 32 -a 2 -x {1.0 6.0 6 ------- null}
+ -t 0.144 -s 3 -d 4 -p cbr -e 500 -c 2 -i 32 -a 2 -x {1.0 6.0 6 ------- null}
r -t 0.144 -s 2 -d 3 -p cbr -e 500 -c 1 -i 33 -a 1 -x {2.0 5.0 26 ------- null}
+ -t 0.144 -s 3 -d 4 -p cbr -e 500 -c 1 -i 33 -a 1 -x {2.0 5.0 26 ------- null}
+ -t 0.145 -s 1 -d 3 -p cbr -e 500 -c 2 -i 38 -a 2 -x {1.0 6.0 9 ------- null}
- -t 0.145 -s 1 -d 3 -p cbr -e 500 -c 2 -i 38 -a 2 -x {1.0 6.0 9 ------- null}
h -t 0.145 -s 1 -d 3 -p cbr -e 500 -c 2 -i 38 -a 2 -x {1.0 6.0 -1 ------- null}
+ -t 0.145 -s 2 -d 3 -p cbr -e 500 -c 1 -i 39 -a 1 -x {2.0 5.0 29 ------- null}
- -t 0.145 -s 2 -d 3 -p cbr -e 500 -c 1 -i 39 -a 1 -x {2.0 5.0 29 ------- null}
h -t 0.145 -s 2 -d 3 -p cbr -e 500 -c 1 -i 39 -a 1 -x {2.0 5.0 -1 ------- null}
r -t 0.146 -s 4 -d 5 -p cbr -e 500 -c 1 -i 21 -a 1 -x {2.0 5.0 20 ------- null}